
             +---------------------------------------------------+
             |                                                   |
             |                   WANNIER90                       |
             |                                                   |
             +---------------------------------------------------+
             |                                                   |
             |        Welcome to the Maximally-Localized         |
             |        Generalized Wannier Functions code         |
             |            http://www.wannier.org                 |
             |                                                   |
             |                                                   |
             |  Wannier90 Developer Group:                       |
             |    Giovanni Pizzi    (EPFL)                       |
             |    Valerio Vitale    (Cambridge)                  |
             |    David Vanderbilt  (Rutgers University)         |
             |    Nicola Marzari    (EPFL)                       |
             |    Ivo Souza         (Universidad del Pais Vasco) |
             |    Arash A. Mostofi  (Imperial College London)    |
             |    Jonathan R. Yates (University of Oxford)       |
             |                                                   |
             |  For the full list of Wannier90 3.x authors,      |
             |  please check the code documentation and the      |
             |  README on the GitHub page of the code            |
             |                                                   |
             |                                                   |
             |  Please cite                                      |
             |                                                   |
             |  [ref] "Wannier90 as a community code:            |
             |        new features and applications",            |
             |        G. Pizzi et al., J. Phys. Cond. Matt. 32,  |
             |        165902 (2020).                             |
             |        http://doi.org/10.1088/1361-648X/ab51ff    |
             |                                                   |
             |  in any publications arising from the use of      |
             |  this code. For the method please cite            |
             |                                                   |
             |  [ref] "Maximally Localized Generalised Wannier   |
             |         Functions for Composite Energy Bands"     |
             |         N. Marzari and D. Vanderbilt              |
             |         Phys. Rev. B 56 12847 (1997)              |
             |                                                   |
             |  [ref] "Maximally Localized Wannier Functions     |
             |         for Entangled Energy Bands"               |
             |         I. Souza, N. Marzari and D. Vanderbilt    |
             |         Phys. Rev. B 65 035109 (2001)             |
             |                                                   |
             |                                                   |
             | Copyright (c) 1996-2020                           |
             |        The Wannier90 Developer Group and          |
             |        individual contributors                    |
             |                                                   |
             |      Release: 3.1.0        5th March    2020      |
             |                                                   |
             | This program is free software; you can            |
             | redistribute it and/or modify it under the terms  |
             | of the GNU General Public License as published by |
             | the Free Software Foundation; either version 2 of |
             | the License, or (at your option) any later version|
             |                                                   |
             | This program is distributed in the hope that it   |
             | will be useful, but WITHOUT ANY WARRANTY; without |
             | even the implied warranty of MERCHANTABILITY or   |
             | FITNESS FOR A PARTICULAR PURPOSE. See the GNU     |
             | General Public License for more details.          |
             |                                                   |
             | You should have received a copy of the GNU General|
             | Public License along with this program; if not,   |
             | write to the Free Software Foundation, Inc.,      |
             | 675 Mass Ave, Cambridge, MA 02139, USA.           |
             |                                                   |
             +---------------------------------------------------+
             |    Execution started on  1May2020 at 14:52:38     |
             +---------------------------------------------------+
 
 ******************************************************************************
 * -> Using CODATA 2006 constant values                                       *
 *    (http://physics.nist.gov/cuu/Constants/index.html)                      *
 * -> Using Bohr value from CODATA                                            *
 ******************************************************************************
 

 Running in serial (with serial executable)

                                    ------
                                    SYSTEM
                                    ------

                              Lattice Vectors (Ang)
                    a_1     3.846520   0.000000   0.000000
                    a_2     0.000000   3.846520   0.000000
                    a_3     0.000000   0.000000   3.846520

                   Unit Cell Volume:      56.91202  (Ang^3)

                        Reciprocal-Space Vectors (Ang^-1)
                    b_1     1.633473   0.000000   0.000000
                    b_2     0.000000   1.633473   0.000000
                    b_3     0.000000   0.000000   1.633473
  
 *----------------------------------------------------------------------------*
 |   Site       Fractional Coordinate          Cartesian Coordinate (Ang)     |
 +----------------------------------------------------------------------------+
 | Sr   1   0.00000   0.00000   0.00000   |    0.00000   0.00000   0.00000    |
 | V    1   0.50000   0.50000   0.50000   |    1.92326   1.92326   1.92326    |
 | O    1   0.50000   0.50000   0.00000   |    1.92326   1.92326   0.00000    |
 | O    2   0.50000   0.00000   0.00000   |    1.92326   0.00000   0.00000    |
 | O    3   0.00000   0.50000   0.00000   |    0.00000   1.92326   0.00000    |
 *----------------------------------------------------------------------------*
                                ------------
                                K-POINT GRID
                                ------------
  
             Grid size =  8 x  8 x  8      Total points =  512
  
  
 *---------------------------------- MAIN ------------------------------------*
 |  Number of Wannier Functions               :                14             |
 |  Number of Objective Wannier Functions     :                14             |
 |  Number of input Bloch states              :                48             |
 |  Output verbosity (1=low, 5=high)          :                 1             |
 |  Timing Level (1=low, 5=high)              :                 1             |
 |  Optimisation (0=memory, 3=speed)          :                 3             |
 |  Length Unit                               :               Ang             |
 |  Post-processing setup (write *.nnkp)      :                 F             |
 |  Using Gamma-only branch of algorithms     :                 F             |
 *----------------------------------------------------------------------------*
 *------------------------------- WANNIERISE ---------------------------------*
 |  Total number of iterations                :               100             |
 |  Number of CG steps before reset           :                 5             |
 |  Trial step length for line search         :             2.000             |
 |  Convergence tolerence                     :         0.100E-09             |
 |  Convergence window                        :                -1             |
 |  Iterations between writing output         :                 1             |
 |  Iterations between backing up to disk     :               100             |
 |  Write r^2_nm to file                      :                 F             |
 |  Write xyz WF centres to file              :                 F             |
 |  Write on-site energies <0n|H|0n> to file  :                 F             |
 |  Use guiding centre to control phases      :                 F             |
 |  Use phases for initial projections        :                 F             |
 *----------------------------------------------------------------------------*
 *------------------------------- DISENTANGLE --------------------------------*
 |  Using band disentanglement                :                 T             |
 |  Total number of iterations                :               200             |
 |  Mixing ratio                              :             0.500             |
 |  Convergence tolerence                     :         1.000E-10             |
 |  Convergence window                        :                 3             |
 *----------------------------------------------------------------------------*
 Time to read parameters        0.059 (sec)

 *---------------------------------- K-MESH ----------------------------------*
 +----------------------------------------------------------------------------+
 |                    Distance to Nearest-Neighbour Shells                    |
 |                    ------------------------------------                    |
 |          Shell             Distance (Ang^-1)          Multiplicity         |
 |          -----             -----------------          ------------         |
 |             1                   0.204184                      6            |
 |             2                   0.288760                     12            |
 |             3                   0.353657                      8            |
 |             4                   0.408368                      6            |
 |             5                   0.456569                     24            |
 |             6                   0.500147                     24            |
 |             7                   0.577520                     12            |
 |             8                   0.612552                     30            |
 |             9                   0.645687                     24            |
 |            10                   0.677202                     24            |
 |            11                   0.707314                      8            |
 |            12                   0.736196                     24            |
 |            13                   0.763987                     48            |
 |            14                   0.816736                      6            |
 |            15                   0.841873                     48            |
 |            16                   0.866280                     36            |
 |            17                   0.890018                     24            |
 |            18                   0.913139                     24            |
 |            19                   0.935689                     48            |
 |            20                   0.957708                     24            |
 |            21                   1.000294                     24            |
 |            22                   1.020920                     30            |
 |            23                   1.041139                     72            |
 |            24                   1.060972                     32            |
 |            25                   1.099565                     72            |
 |            26                   1.118362                     48            |
 |            27                   1.155040                     12            |
 |            28                   1.172948                     48            |
 |            29                   1.190588                     48            |
 |            30                   1.207969                     48            |
 |            31                   1.225105                     30            |
 |            32                   1.242003                     24            |
 |            33                   1.258675                     72            |
 |            34                   1.291374                     24            |
 |            35                   1.307416                     96            |
 |            36                   1.323264                     48            |
 +----------------------------------------------------------------------------+
 | The b-vectors are chosen automatically                                     |
 | The following shells are used:   1                                         |
 +----------------------------------------------------------------------------+
 |                        Shell   # Nearest-Neighbours                        |
 |                        -----   --------------------                        |
 |                          1               6                                 |
 +----------------------------------------------------------------------------+
 | Completeness relation is fully satisfied [Eq. (B1), PRB 56, 12847 (1997)]  |
 +----------------------------------------------------------------------------+
 |                  b_k Vectors (Ang^-1) and Weights (Ang^2)                  |
 |                  ----------------------------------------                  |
 |            No.         b_k(x)      b_k(y)      b_k(z)        w_b           |
 |            ---        --------------------------------     --------        |
 |             1         0.000000    0.000000    0.204184    11.992956        |
 |             2         0.000000    0.204184    0.000000    11.992956        |
 |             3         0.204184    0.000000    0.000000    11.992956        |
 |             4         0.000000    0.000000   -0.204184    11.992956        |
 |             5         0.000000   -0.204184    0.000000    11.992956        |
 |             6        -0.204184    0.000000    0.000000    11.992956        |
 +----------------------------------------------------------------------------+
 |                           b_k Directions (Ang^-1)                          |
 |                           -----------------------                          |
 |            No.           x           y           z                         |
 |            ---        --------------------------------                     |
 |             1         0.000000    0.000000    0.204184                     |
 |             2         0.000000    0.204184    0.000000                     |
 |             3         0.204184    0.000000    0.000000                     |
 +----------------------------------------------------------------------------+
  
 Time to get kmesh              1.392 (sec)
 *============================================================================*
 |                              MEMORY ESTIMATE                               |
 |         Maximum RAM allocated during each phase of the calculation         |
 *============================================================================*
 |                        Disentanglement          156.88 Mb                  |
 |                            Wannierise:           31.77 Mb                  |
 |                          plot_wannier:           31.77 Mb                  |
 *----------------------------------------------------------------------------*
  
 Starting a new Wannier90 calculation ...


 Reading overlaps from aiida.mmn    :  Created on  1May2020 at 14:47: 4

 Reading projections from aiida.amn :  Created on  1May2020 at 14:35:10

 Time to read overlaps          7.947 (sec)

 *------------------------------- DISENTANGLE --------------------------------*
 +----------------------------------------------------------------------------+
 |                              Energy  Windows                               |
 |                              ---------------                               |
 |                   Outer:  -15.00000  to   15.00000  (eV)                   |
 |                   No frozen states were specified                          |
 +----------------------------------------------------------------------------+
   Number of target bands to extract:   14

                   Unitarised projection of Wannier functions                  
                   ------------------------------------------                  
   A_mn = <psi_m|g_n> --> S = A.A^+ --> U = S^-1/2.A
   In dis_project... done
   No inner window (linner = F)

                   Extraction of optimally-connected subspace                  
                   ------------------------------------------                  
 +---------------------------------------------------------------------+<-- DIS
 |  Iter     Omega_I(i-1)      Omega_I(i)      Delta (frac.)    Time   |<-- DIS
 +---------------------------------------------------------------------+<-- DIS
       1      16.23657108      15.23381002       6.582E-02      0.00    <-- DIS
       2      15.68515734      14.86793718       5.497E-02      0.23    <-- DIS
       3      15.24065389      14.59664433       4.412E-02      0.45    <-- DIS
       4      14.89038460      14.38204265       3.535E-02      0.66    <-- DIS
       5      14.61358614      14.20995210       2.841E-02      0.88    <-- DIS
       6      14.39350410      14.07087047       2.293E-02      1.10    <-- DIS
       7      14.21734541      13.95772161       1.860E-02      1.32    <-- DIS
       8      14.07539646      13.86507617       1.517E-02      1.53    <-- DIS
       9      13.96024635      13.78871346       1.244E-02      1.75    <-- DIS
      10      13.86620059      13.72532916       1.026E-02      1.97    <-- DIS
      11      13.78885308      13.67232507       8.523E-03      2.19    <-- DIS
      12      13.72477421      13.62765184       7.127E-03      2.40    <-- DIS
      13      13.67128112      13.58968894       6.004E-03      2.62    <-- DIS
      14      13.62626653      13.55715195       5.098E-03      2.84    <-- DIS
      15      13.58806948      13.52902059       4.365E-03      3.06    <-- DIS
      16      13.55537685      13.50448262       3.769E-03      3.28    <-- DIS
      17      13.52714762      13.48288988       3.283E-03      3.49    <-- DIS
      18      13.50255436      13.46372390       2.884E-03      3.71    <-- DIS
      19      13.48093767      13.44656888       2.556E-03      3.93    <-- DIS
      20      13.46177070      13.43109039       2.284E-03      4.15    <-- DIS
      21      13.44463136      13.41701866       2.058E-03      4.36    <-- DIS
      22      13.42918048      13.40413532       1.868E-03      4.58    <-- DIS
      23      13.41514473      13.39226304       1.709E-03      4.80    <-- DIS
      24      13.40230309      13.38125720       1.573E-03      5.02    <-- DIS
      25      13.39047619      13.37099941       1.457E-03      5.24    <-- DIS
      26      13.37951794      13.36139229       1.357E-03      5.45    <-- DIS
      27      13.36930881      13.35235541       1.270E-03      5.67    <-- DIS
      28      13.35975064      13.34382194       1.194E-03      5.89    <-- DIS
      29      13.35076236      13.33573612       1.127E-03      6.11    <-- DIS
      30      13.34227675      13.32805112       1.067E-03      6.32    <-- DIS
      31      13.33423774      13.32072740       1.014E-03      6.54    <-- DIS
      32      13.32659831      13.31373138       9.664E-04      6.76    <-- DIS
      33      13.31931879      13.30703437       9.232E-04      6.97    <-- DIS
      34      13.31236553      13.30061169       8.837E-04      7.19    <-- DIS
      35      13.30570980      13.29444198       8.476E-04      7.41    <-- DIS
      36      13.29932692      13.28850666       8.143E-04      7.63    <-- DIS
      37      13.29319556      13.28278944       7.834E-04      7.85    <-- DIS
      38      13.28729716      13.27727597       7.548E-04      8.07    <-- DIS
      39      13.28161548      13.27195352       7.280E-04      8.29    <-- DIS
      40      13.27613621      13.26681075       7.029E-04      8.51    <-- DIS
      41      13.27084668      13.26183749       6.793E-04      8.73    <-- DIS
      42      13.26573559      13.25702456       6.571E-04      8.95    <-- DIS
      43      13.26079284      13.25236367       6.361E-04      9.17    <-- DIS
      44      13.25600930      13.24784726       6.161E-04      9.38    <-- DIS
      45      13.25137673      13.24346842       5.971E-04      9.60    <-- DIS
      46      13.24688762      13.23922081       5.791E-04      9.82    <-- DIS
      47      13.24253511      13.23509860       5.619E-04     10.04    <-- DIS
      48      13.23831291      13.23109637       5.454E-04     10.26    <-- DIS
      49      13.23421522      13.22720913       5.297E-04     10.48    <-- DIS
      50      13.23023668      13.22343221       5.146E-04     10.70    <-- DIS
      51      13.22637233      13.21976125       5.001E-04     10.91    <-- DIS
      52      13.22261753      13.21619217       4.862E-04     11.13    <-- DIS
      53      13.21896797      13.21272116       4.728E-04     11.35    <-- DIS
      54      13.21541960      13.20934461       4.599E-04     11.57    <-- DIS
      55      13.21196863      13.20605914       4.475E-04     11.79    <-- DIS
      56      13.20861149      13.20286155       4.355E-04     12.00    <-- DIS
      57      13.20534482      13.19974880       4.239E-04     12.22    <-- DIS
      58      13.20216544      13.19671802       4.128E-04     12.44    <-- DIS
      59      13.19907036      13.19376649       4.020E-04     12.65    <-- DIS
      60      13.19605671      13.19089162       3.916E-04     12.87    <-- DIS
      61      13.19312180      13.18809093       3.815E-04     13.09    <-- DIS
      62      13.19026305      13.18536207       3.717E-04     13.31    <-- DIS
      63      13.18747801      13.18270280       3.622E-04     13.53    <-- DIS
      64      13.18476435      13.18011097       3.531E-04     13.74    <-- DIS
      65      13.18211984      13.17758451       3.442E-04     13.96    <-- DIS
      66      13.17954235      13.17512147       3.355E-04     14.18    <-- DIS
      67      13.17702983      13.17271996       3.272E-04     14.40    <-- DIS
      68      13.17458033      13.17037816       3.191E-04     14.62    <-- DIS
      69      13.17219198      13.16809433       3.112E-04     14.83    <-- DIS
      70      13.16986298      13.16586681       3.035E-04     15.05    <-- DIS
      71      13.16759161      13.16369398       2.961E-04     15.27    <-- DIS
      72      13.16537620      13.16157429       2.889E-04     15.49    <-- DIS
      73      13.16321515      13.15950626       2.818E-04     15.70    <-- DIS
      74      13.16110693      13.15748844       2.750E-04     15.92    <-- DIS
      75      13.15905005      13.15551944       2.684E-04     16.14    <-- DIS
      76      13.15704310      13.15359794       2.619E-04     16.36    <-- DIS
      77      13.15508468      13.15172263       2.556E-04     16.57    <-- DIS
      78      13.15317347      13.14989226       2.495E-04     16.79    <-- DIS
      79      13.15130819      13.14810564       2.436E-04     17.01    <-- DIS
      80      13.14948759      13.14636158       2.378E-04     17.23    <-- DIS
      81      13.14771048      13.14465896       2.321E-04     17.44    <-- DIS
      82      13.14597570      13.14299670       2.267E-04     17.66    <-- DIS
      83      13.14428211      13.14137372       2.213E-04     17.88    <-- DIS
      84      13.14262865      13.13978900       2.161E-04     18.10    <-- DIS
      85      13.14101424      13.13824156       2.110E-04     18.32    <-- DIS
      86      13.13943789      13.13673042       2.061E-04     18.53    <-- DIS
      87      13.13789859      13.13525465       2.013E-04     18.75    <-- DIS
      88      13.13639539      13.13381335       1.966E-04     18.97    <-- DIS
      89      13.13492737      13.13240564       1.920E-04     19.19    <-- DIS
      90      13.13349362      13.13103066       1.876E-04     19.40    <-- DIS
      91      13.13209327      13.12968759       1.832E-04     19.62    <-- DIS
      92      13.13072548      13.12837562       1.790E-04     19.84    <-- DIS
      93      13.12938941      13.12709398       1.749E-04     20.06    <-- DIS
      94      13.12808427      13.12584190       1.708E-04     20.28    <-- DIS
      95      13.12680929      13.12461865       1.669E-04     20.50    <-- DIS
      96      13.12556371      13.12342351       1.631E-04     20.71    <-- DIS
      97      13.12434680      13.12225578       1.593E-04     20.93    <-- DIS
      98      13.12315784      13.12111480       1.557E-04     21.15    <-- DIS
      99      13.12199615      13.11999989       1.522E-04     21.37    <-- DIS
     100      13.12086105      13.11891043       1.487E-04     21.58    <-- DIS
     101      13.11975189      13.11784578       1.453E-04     21.80    <-- DIS
     102      13.11866804      13.11680535       1.420E-04     22.02    <-- DIS
     103      13.11760886      13.11578854       1.388E-04     22.23    <-- DIS
     104      13.11657377      13.11479478       1.356E-04     22.45    <-- DIS
     105      13.11556217      13.11382352       1.326E-04     22.67    <-- DIS
     106      13.11457350      13.11287420       1.296E-04     22.89    <-- DIS
     107      13.11360720      13.11194631       1.267E-04     23.10    <-- DIS
     108      13.11266274      13.11103932       1.238E-04     23.32    <-- DIS
     109      13.11173957      13.11015273       1.210E-04     23.54    <-- DIS
     110      13.11083720      13.10928606       1.183E-04     23.76    <-- DIS
     111      13.10995513      13.10843883       1.157E-04     23.97    <-- DIS
     112      13.10909286      13.10761058       1.131E-04     24.19    <-- DIS
     113      13.10824993      13.10680085       1.106E-04     24.41    <-- DIS
     114      13.10742588      13.10600921       1.081E-04     24.62    <-- DIS
     115      13.10662025      13.10523523       1.057E-04     24.84    <-- DIS
     116      13.10583262      13.10447849       1.033E-04     25.06    <-- DIS
     117      13.10506254      13.10373857       1.010E-04     25.27    <-- DIS
     118      13.10430962      13.10301510       9.880E-05     25.49    <-- DIS
     119      13.10357344      13.10230768       9.661E-05     25.71    <-- DIS
     120      13.10285360      13.10161593       9.447E-05     25.92    <-- DIS
     121      13.10214974      13.10093948       9.238E-05     26.14    <-- DIS
     122      13.10146146      13.10027798       9.034E-05     26.36    <-- DIS
     123      13.10078841      13.09963108       8.835E-05     26.58    <-- DIS
     124      13.10013023      13.09899844       8.640E-05     26.80    <-- DIS
     125      13.09948657      13.09837973       8.450E-05     27.01    <-- DIS
     126      13.09885709      13.09777461       8.265E-05     27.23    <-- DIS
     127      13.09824146      13.09718279       8.083E-05     27.45    <-- DIS
     128      13.09763937      13.09660394       7.906E-05     27.66    <-- DIS
     129      13.09705049      13.09603776       7.733E-05     27.88    <-- DIS
     130      13.09647452      13.09548397       7.564E-05     28.10    <-- DIS
     131      13.09591116      13.09494228       7.399E-05     28.31    <-- DIS
     132      13.09536012      13.09441241       7.238E-05     28.53    <-- DIS
     133      13.09482112      13.09389409       7.080E-05     28.75    <-- DIS
     134      13.09429388      13.09338705       6.926E-05     28.97    <-- DIS
     135      13.09377812      13.09289103       6.775E-05     29.19    <-- DIS
     136      13.09327359      13.09240578       6.628E-05     29.41    <-- DIS
     137      13.09278002      13.09193105       6.485E-05     29.62    <-- DIS
     138      13.09229716      13.09146661       6.344E-05     29.84    <-- DIS
     139      13.09182478      13.09101221       6.207E-05     30.06    <-- DIS
     140      13.09136262      13.09056763       6.073E-05     30.28    <-- DIS
     141      13.09091046      13.09013265       5.942E-05     30.50    <-- DIS
     142      13.09046806      13.08970704       5.814E-05     30.71    <-- DIS
     143      13.09003521      13.08929059       5.689E-05     30.93    <-- DIS
     144      13.08961169      13.08888310       5.566E-05     31.15    <-- DIS
     145      13.08919728      13.08848435       5.447E-05     31.36    <-- DIS
     146      13.08879178      13.08809416       5.330E-05     31.58    <-- DIS
     147      13.08839498      13.08771233       5.216E-05     31.80    <-- DIS
     148      13.08800670      13.08733867       5.104E-05     32.01    <-- DIS
     149      13.08762673      13.08697299       4.995E-05     32.23    <-- DIS
     150      13.08725489      13.08661512       4.889E-05     32.45    <-- DIS
     151      13.08689099      13.08626488       4.784E-05     32.66    <-- DIS
     152      13.08653485      13.08592209       4.683E-05     32.88    <-- DIS
     153      13.08618631      13.08558659       4.583E-05     33.10    <-- DIS
     154      13.08584518      13.08525822       4.486E-05     33.31    <-- DIS
     155      13.08551131      13.08493681       4.391E-05     33.53    <-- DIS
     156      13.08518453      13.08462221       4.298E-05     33.75    <-- DIS
     157      13.08486467      13.08431427       4.207E-05     33.96    <-- DIS
     158      13.08455159      13.08401284       4.118E-05     34.18    <-- DIS
     159      13.08424513      13.08371776       4.031E-05     34.40    <-- DIS
     160      13.08394515      13.08342891       3.946E-05     34.61    <-- DIS
     161      13.08365149      13.08314614       3.863E-05     34.83    <-- DIS
     162      13.08336403      13.08286931       3.781E-05     35.05    <-- DIS
     163      13.08308261      13.08259829       3.702E-05     35.26    <-- DIS
     164      13.08280711      13.08233296       3.624E-05     35.48    <-- DIS
     165      13.08253739      13.08207318       3.548E-05     35.70    <-- DIS
     166      13.08227332      13.08181884       3.474E-05     35.91    <-- DIS
     167      13.08201479      13.08156980       3.402E-05     36.13    <-- DIS
     168      13.08176165      13.08132597       3.331E-05     36.35    <-- DIS
     169      13.08151381      13.08108721       3.261E-05     36.56    <-- DIS
     170      13.08127113      13.08085342       3.193E-05     36.78    <-- DIS
     171      13.08103351      13.08062448       3.127E-05     37.00    <-- DIS
     172      13.08080083      13.08040030       3.062E-05     37.22    <-- DIS
     173      13.08057298      13.08018076       2.999E-05     37.43    <-- DIS
     174      13.08034985      13.07996576       2.936E-05     37.65    <-- DIS
     175      13.08013135      13.07975521       2.876E-05     37.87    <-- DIS
     176      13.07991737      13.07954900       2.816E-05     38.08    <-- DIS
     177      13.07970781      13.07934703       2.758E-05     38.30    <-- DIS
     178      13.07950256      13.07914923       2.702E-05     38.52    <-- DIS
     179      13.07930155      13.07895548       2.646E-05     38.74    <-- DIS
     180      13.07910467      13.07876571       2.592E-05     38.95    <-- DIS
     181      13.07891184      13.07857983       2.539E-05     39.17    <-- DIS
     182      13.07872296      13.07839775       2.487E-05     39.39    <-- DIS
     183      13.07853794      13.07821939       2.436E-05     39.60    <-- DIS
     184      13.07835672      13.07804467       2.386E-05     39.82    <-- DIS
     185      13.07817919      13.07787350       2.337E-05     40.04    <-- DIS
     186      13.07800528      13.07770582       2.290E-05     40.25    <-- DIS
     187      13.07783491      13.07754154       2.243E-05     40.47    <-- DIS
     188      13.07766800      13.07738059       2.198E-05     40.69    <-- DIS
     189      13.07750449      13.07722290       2.153E-05     40.91    <-- DIS
     190      13.07734428      13.07706840       2.110E-05     41.13    <-- DIS
     191      13.07718732      13.07691701       2.067E-05     41.34    <-- DIS
     192      13.07703353      13.07676867       2.025E-05     41.56    <-- DIS
     193      13.07688284      13.07662332       1.985E-05     41.78    <-- DIS
     194      13.07673518      13.07648088       1.945E-05     41.99    <-- DIS
     195      13.07659050      13.07634131       1.906E-05     42.21    <-- DIS
     196      13.07644872      13.07620452       1.867E-05     42.43    <-- DIS
     197      13.07630978      13.07607047       1.830E-05     42.64    <-- DIS
     198      13.07617362      13.07593909       1.794E-05     42.86    <-- DIS
     199      13.07604018      13.07581033       1.758E-05     43.08    <-- DIS
     200      13.07590940      13.07568413       1.723E-05     43.29    <-- DIS

     <<< Warning: Maximum number of disentanglement iterations reached >>>
          <<< Disentanglement convergence criteria not satisfied >>>

        Final Omega_I    13.07568413 (Ang^2)

 +----------------------------------------------------------------------------+

 Time to disentangle bands     43.942 (sec)

 Writing checkpoint file aiida.chk... done


 *------------------------------- WANNIERISE ---------------------------------*
 +--------------------------------------------------------------------+<-- CONV
 | Iter  Delta Spread     RMS Gradient      Spread (Ang^2)      Time  |<-- CONV
 +--------------------------------------------------------------------+<-- CONV

 ------------------------------------------------------------------------------
 Initial State
  WF centre and spread    1  (  1.923260,  1.923260,  1.923260 )     2.59829710
  WF centre and spread    2  (  1.923260,  1.923260,  1.923260 )     0.83817314
  WF centre and spread    3  (  1.923260,  1.923260,  1.923260 )     0.83817314
  WF centre and spread    4  (  1.923260,  1.923260,  1.923260 )     1.00188467
  WF centre and spread    5  (  1.923260,  1.923260,  1.923260 )     1.44819220
  WF centre and spread    6  (  1.923260,  1.923260,  0.000000 )     1.40490166
  WF centre and spread    7  (  1.923260,  1.923260,  0.000000 )     0.54638085
  WF centre and spread    8  (  1.923260,  1.923260,  0.000000 )     0.54638085
  WF centre and spread    9  (  1.923260,  0.000000,  0.000000 )     0.94327346
  WF centre and spread   10  (  1.923260, -0.000000, -0.000000 )     0.69977108
  WF centre and spread   11  (  1.923260, -0.000000, -0.000000 )     0.65008389
  WF centre and spread   12  (  0.000000,  1.923260, -0.000000 )     0.94327346
  WF centre and spread   13  (  0.000000,  1.923260, -0.000000 )     0.65008389
  WF centre and spread   14  ( -0.000000,  1.923260,  0.000000 )     0.69977108
  Sum of centres and spreads ( 21.155860, 21.155860,  9.616300 )    13.80864045

      0     0.138E+02     0.0000000000       13.8086404457      43.69  <-- CONV
        O_D=      0.0000000 O_OD=      0.7329563 O_TOT=     13.8086404 <-- SPRD
 ------------------------------------------------------------------------------
 Cycle:      1
  WF centre and spread    1  (  1.923260,  1.923260,  1.923260 )     2.58155363
  WF centre and spread    2  (  1.923260,  1.923260,  1.923260 )     0.83787714
  WF centre and spread    3  (  1.923260,  1.923260,  1.923260 )     0.83787714
  WF centre and spread    4  (  1.923260,  1.923260,  1.923260 )     1.00175072
  WF centre and spread    5  (  1.923260,  1.923260,  1.923260 )     1.44532436
  WF centre and spread    6  (  1.923260,  1.923260,  0.000000 )     1.37247738
  WF centre and spread    7  (  1.923260,  1.923260,  0.000000 )     0.54474522
  WF centre and spread    8  (  1.923260,  1.923260,  0.000000 )     0.54474522
  WF centre and spread    9  (  1.923260,  0.000000,  0.000000 )     0.94217135
  WF centre and spread   10  (  1.923260, -0.000000, -0.000000 )     0.69754157
  WF centre and spread   11  (  1.923260, -0.000000, -0.000000 )     0.64925804
  WF centre and spread   12  (  0.000000,  1.923260, -0.000000 )     0.94217135
  WF centre and spread   13  (  0.000000,  1.923260, -0.000000 )     0.64925804
  WF centre and spread   14  ( -0.000000,  1.923260,  0.000000 )     0.69754157
  Sum of centres and spreads ( 21.155860, 21.155860,  9.616300 )    13.74429274

      1    -0.643E-01     0.1749247426       13.7442927437      43.90  <-- CONV
        O_D=      0.0000000 O_OD=      0.6686086 O_TOT=     13.7442927 <-- SPRD
 Delta: O_D=  0.7349804E-16 O_OD= -0.6434770E-01 O_TOT= -0.6434770E-01 <-- DLTA
 ------------------------------------------------------------------------------
 Cycle:      2
  WF centre and spread    1  (  1.923260,  1.923260,  1.923260 )     2.56914589
  WF centre and spread    2  (  1.923260,  1.923260,  1.923260 )     0.83847404
  WF centre and spread    3  (  1.923260,  1.923260,  1.923260 )     0.83847404
  WF centre and spread    4  (  1.923260,  1.923260,  1.923260 )     1.00613414
  WF centre and spread    5  (  1.923260,  1.923260,  1.923260 )     1.44262652
  WF centre and spread    6  (  1.923260,  1.923260,  0.000000 )     1.32730934
  WF centre and spread    7  (  1.923260,  1.923260,  0.000000 )     0.54362654
  WF centre and spread    8  (  1.923260,  1.923260,  0.000000 )     0.54362654
  WF centre and spread    9  (  1.923260,  0.000000,  0.000000 )     0.94295413
  WF centre and spread   10  (  1.923260, -0.000000, -0.000000 )     0.69621726
  WF centre and spread   11  (  1.923260, -0.000000, -0.000000 )     0.64839013
  WF centre and spread   12  (  0.000000,  1.923260, -0.000000 )     0.94295413
  WF centre and spread   13  (  0.000000,  1.923260, -0.000000 )     0.64839013
  WF centre and spread   14  ( -0.000000,  1.923260,  0.000000 )     0.69621726
  Sum of centres and spreads ( 21.155860, 21.155860,  9.616300 )    13.68454008

      2    -0.598E-01     0.1801493044       13.6845400835      44.10  <-- CONV
        O_D=      0.0000000 O_OD=      0.6088560 O_TOT=     13.6845401 <-- SPRD
 Delta: O_D=  0.8506085E-17 O_OD= -0.5975266E-01 O_TOT= -0.5975266E-01 <-- DLTA
 ------------------------------------------------------------------------------
 Cycle:      3
  WF centre and spread    1  (  1.923260,  1.923260,  1.923260 )     2.56473610
  WF centre and spread    2  (  1.923260,  1.923260,  1.923260 )     0.83890971
  WF centre and spread    3  (  1.923260,  1.923260,  1.923260 )     0.83890971
  WF centre and spread    4  (  1.923260,  1.923260,  1.923260 )     1.01176947
  WF centre and spread    5  (  1.923260,  1.923260,  1.923260 )     1.44021097
  WF centre and spread    6  (  1.923260,  1.923260,  0.000000 )     1.28471025
  WF centre and spread    7  (  1.923260,  1.923260,  0.000000 )     0.54325882
  WF centre and spread    8  (  1.923260,  1.923260,  0.000000 )     0.54325882
  WF centre and spread    9  (  1.923260,  0.000000,  0.000000 )     0.94461017
  WF centre and spread   10  (  1.923260, -0.000000, -0.000000 )     0.69614246
  WF centre and spread   11  (  1.923260, -0.000000, -0.000000 )     0.64796804
  WF centre and spread   12  (  0.000000,  1.923260, -0.000000 )     0.94461017
  WF centre and spread   13  (  0.000000,  1.923260, -0.000000 )     0.64796804
  WF centre and spread   14  ( -0.000000,  1.923260,  0.000000 )     0.69614246
  Sum of centres and spreads ( 21.155860, 21.155860,  9.616300 )    13.64320521

      3    -0.413E-01     0.1652990633       13.6432052138      44.29  <-- CONV
        O_D=      0.0000000 O_OD=      0.5675211 O_TOT=     13.6432052 <-- SPRD
 Delta: O_D= -0.1229839E-16 O_OD= -0.4133487E-01 O_TOT= -0.4133487E-01 <-- DLTA
 ------------------------------------------------------------------------------
 Cycle:      4
  WF centre and spread    1  (  1.923260,  1.923260,  1.923260 )     2.56789460
  WF centre and spread    2  (  1.923260,  1.923260,  1.923260 )     0.83932599
  WF centre and spread    3  (  1.923260,  1.923260,  1.923260 )     0.83932599
  WF centre and spread    4  (  1.923260,  1.923260,  1.923260 )     1.01729881
  WF centre and spread    5  (  1.923260,  1.923260,  1.923260 )     1.43863867
  WF centre and spread    6  (  1.923260,  1.923260,  0.000000 )     1.24022479
  WF centre and spread    7  (  1.923260,  1.923260,  0.000000 )     0.54349270
  WF centre and spread    8  (  1.923260,  1.923260,  0.000000 )     0.54349270
  WF centre and spread    9  (  1.923260,  0.000000,  0.000000 )     0.94607492
  WF centre and spread   10  (  1.923260, -0.000000, -0.000000 )     0.69689349
  WF centre and spread   11  (  1.923260, -0.000000, -0.000000 )     0.64780119
  WF centre and spread   12  (  0.000000,  1.923260, -0.000000 )     0.94607492
  WF centre and spread   13  (  0.000000,  1.923260, -0.000000 )     0.64780119
  WF centre and spread   14  ( -0.000000,  1.923260,  0.000000 )     0.69689349
  Sum of centres and spreads ( 21.155860, 21.155860,  9.616300 )    13.61123346

      4    -0.320E-01     0.1383659206       13.6112334628      44.49  <-- CONV
        O_D=      0.0000000 O_OD=      0.5355493 O_TOT=     13.6112335 <-- SPRD
 Delta: O_D=  0.1867093E-16 O_OD= -0.3197175E-01 O_TOT= -0.3197175E-01 <-- DLTA
 ------------------------------------------------------------------------------
 Cycle:      5
  WF centre and spread    1  (  1.923260,  1.923260,  1.923260 )     2.57767074
  WF centre and spread    2  (  1.923260,  1.923260,  1.923260 )     0.84012440
  WF centre and spread    3  (  1.923260,  1.923260,  1.923260 )     0.84012440
  WF centre and spread    4  (  1.923260,  1.923260,  1.923260 )     1.02141089
  WF centre and spread    5  (  1.923260,  1.923260,  1.923260 )     1.43764474
  WF centre and spread    6  (  1.923260,  1.923260,  0.000000 )     1.19390391
  WF centre and spread    7  (  1.923260,  1.923260,  0.000000 )     0.54372496
  WF centre and spread    8  (  1.923260,  1.923260,  0.000000 )     0.54372496
  WF centre and spread    9  (  1.923260,  0.000000,  0.000000 )     0.94734528
  WF centre and spread   10  (  1.923260, -0.000000, -0.000000 )     0.69770326
  WF centre and spread   11  (  1.923260, -0.000000, -0.000000 )     0.64801027
  WF centre and spread   12  (  0.000000,  1.923260, -0.000000 )     0.94734528
  WF centre and spread   13  (  0.000000,  1.923260, -0.000000 )     0.64801027
  WF centre and spread   14  ( -0.000000,  1.923260,  0.000000 )     0.69770326
  Sum of centres and spreads ( 21.155860, 21.155860,  9.616300 )    13.58444662

      5    -0.268E-01     0.1260668057       13.5844466154      44.68  <-- CONV
        O_D=      0.0000000 O_OD=      0.5087625 O_TOT=     13.5844466 <-- SPRD
 Delta: O_D=  0.2380064E-16 O_OD= -0.2678685E-01 O_TOT= -0.2678685E-01 <-- DLTA
 ------------------------------------------------------------------------------
 Cycle:      6
  WF centre and spread    1  (  1.923260,  1.923260,  1.923260 )     2.59185521
  WF centre and spread    2  (  1.923260,  1.923260,  1.923260 )     0.84097350
  WF centre and spread    3  (  1.923260,  1.923260,  1.923260 )     0.84097350
  WF centre and spread    4  (  1.923260,  1.923260,  1.923260 )     1.02315066
  WF centre and spread    5  (  1.923260,  1.923260,  1.923260 )     1.43643720
  WF centre and spread    6  (  1.923260,  1.923260,  0.000000 )     1.15139068
  WF centre and spread    7  (  1.923260,  1.923260,  0.000000 )     0.54385056
  WF centre and spread    8  (  1.923260,  1.923260,  0.000000 )     0.54385056
  WF centre and spread    9  (  1.923260,  0.000000,  0.000000 )     0.94850154
  WF centre and spread   10  (  1.923260, -0.000000, -0.000000 )     0.69816464
  WF centre and spread   11  (  1.923260, -0.000000, -0.000000 )     0.64817330
  WF centre and spread   12  (  0.000000,  1.923260, -0.000000 )     0.94850154
  WF centre and spread   13  (  0.000000,  1.923260, -0.000000 )     0.64817330
  WF centre and spread   14  ( -0.000000,  1.923260,  0.000000 )     0.69816464
  Sum of centres and spreads ( 21.155860, 21.155860,  9.616300 )    13.56216084

      6    -0.223E-01     0.1181426702       13.5621608419      44.87  <-- CONV
        O_D=      0.0000000 O_OD=      0.4864767 O_TOT=     13.5621608 <-- SPRD
 Delta: O_D= -0.7862454E-17 O_OD= -0.2228577E-01 O_TOT= -0.2228577E-01 <-- DLTA
 ------------------------------------------------------------------------------
 Cycle:      7
  WF centre and spread    1  (  1.923260,  1.923260,  1.923260 )     2.59164481
  WF centre and spread    2  (  1.923260,  1.923260,  1.923260 )     0.84079139
  WF centre and spread    3  (  1.923260,  1.923260,  1.923260 )     0.84079139
  WF centre and spread    4  (  1.923260,  1.923260,  1.923260 )     1.02153378
  WF centre and spread    5  (  1.923260,  1.923260,  1.923260 )     1.43562500
  WF centre and spread    6  (  1.923260,  1.923260,  0.000000 )     1.14716252
  WF centre and spread    7  (  1.923260,  1.923260,  0.000000 )     0.54353731
  WF centre and spread    8  (  1.923260,  1.923260,  0.000000 )     0.54353731
  WF centre and spread    9  (  1.923260,  0.000000,  0.000000 )     0.94815795
  WF centre and spread   10  (  1.923260, -0.000000, -0.000000 )     0.69778810
  WF centre and spread   11  (  1.923260, -0.000000, -0.000000 )     0.64788999
  WF centre and spread   12  (  0.000000,  1.923260, -0.000000 )     0.94815795
  WF centre and spread   13  (  0.000000,  1.923260, -0.000000 )     0.64788999
  WF centre and spread   14  ( -0.000000,  1.923260,  0.000000 )     0.69778810
  Sum of centres and spreads ( 21.155860, 21.155860,  9.616300 )    13.55229557

      7    -0.987E-02     0.1046301787       13.5522955741      45.07  <-- CONV
        O_D=      0.0000000 O_OD=      0.4766114 O_TOT=     13.5522956 <-- SPRD
 Delta: O_D= -0.1288806E-16 O_OD= -0.9865268E-02 O_TOT= -0.9865268E-02 <-- DLTA
 ------------------------------------------------------------------------------
 Cycle:      8
  WF centre and spread    1  (  1.923260,  1.923260,  1.923260 )     2.59713490
  WF centre and spread    2  (  1.923260,  1.923260,  1.923260 )     0.84074809
  WF centre and spread    3  (  1.923260,  1.923260,  1.923260 )     0.84074809
  WF centre and spread    4  (  1.923260,  1.923260,  1.923260 )     1.01877157
  WF centre and spread    5  (  1.923260,  1.923260,  1.923260 )     1.43489466
  WF centre and spread    6  (  1.923260,  1.923260,  0.000000 )     1.13916958
  WF centre and spread    7  (  1.923260,  1.923260,  0.000000 )     0.54324110
  WF centre and spread    8  (  1.923260,  1.923260,  0.000000 )     0.54324110
  WF centre and spread    9  (  1.923260,  0.000000,  0.000000 )     0.94778720
  WF centre and spread   10  (  1.923260, -0.000000, -0.000000 )     0.69751372
  WF centre and spread   11  (  1.923260, -0.000000, -0.000000 )     0.64774205
  WF centre and spread   12  (  0.000000,  1.923260, -0.000000 )     0.94778720
  WF centre and spread   13  (  0.000000,  1.923260, -0.000000 )     0.64774205
  WF centre and spread   14  ( -0.000000,  1.923260,  0.000000 )     0.69751372
  Sum of centres and spreads ( 21.155860, 21.155860,  9.616300 )    13.54403503

      8    -0.826E-02     0.0720558040       13.5440350340      45.26  <-- CONV
        O_D=      0.0000000 O_OD=      0.4683509 O_TOT=     13.5440350 <-- SPRD
 Delta: O_D= -0.2676195E-16 O_OD= -0.8260540E-02 O_TOT= -0.8260540E-02 <-- DLTA
 ------------------------------------------------------------------------------
 Cycle:      9
  WF centre and spread    1  (  1.923260,  1.923260,  1.923260 )     2.60583919
  WF centre and spread    2  (  1.923260,  1.923260,  1.923260 )     0.84082881
  WF centre and spread    3  (  1.923260,  1.923260,  1.923260 )     0.84082881
  WF centre and spread    4  (  1.923260,  1.923260,  1.923260 )     1.01598011
  WF centre and spread    5  (  1.923260,  1.923260,  1.923260 )     1.43440795
  WF centre and spread    6  (  1.923260,  1.923260,  0.000000 )     1.12880942
  WF centre and spread    7  (  1.923260,  1.923260,  0.000000 )     0.54302870
  WF centre and spread    8  (  1.923260,  1.923260,  0.000000 )     0.54302870
  WF centre and spread    9  (  1.923260,  0.000000,  0.000000 )     0.94749375
  WF centre and spread   10  (  1.923260, -0.000000, -0.000000 )     0.69741080
  WF centre and spread   11  (  1.923260, -0.000000, -0.000000 )     0.64756969
  WF centre and spread   12  (  0.000000,  1.923260, -0.000000 )     0.94749375
  WF centre and spread   13  (  0.000000,  1.923260, -0.000000 )     0.64756969
  WF centre and spread   14  ( -0.000000,  1.923260,  0.000000 )     0.69741080
  Sum of centres and spreads ( 21.155860, 21.155860,  9.616300 )    13.53770017

      9    -0.633E-02     0.0626865418       13.5377001736      45.45  <-- CONV
        O_D=      0.0000000 O_OD=      0.4620160 O_TOT=     13.5377002 <-- SPRD
 Delta: O_D= -0.4577445E-17 O_OD= -0.6334860E-02 O_TOT= -0.6334860E-02 <-- DLTA
 ------------------------------------------------------------------------------
 Cycle:     10
  WF centre and spread    1  (  1.923260,  1.923260,  1.923260 )     2.61617357
  WF centre and spread    2  (  1.923260,  1.923260,  1.923260 )     0.84087636
  WF centre and spread    3  (  1.923260,  1.923260,  1.923260 )     0.84087636
  WF centre and spread    4  (  1.923260,  1.923260,  1.923260 )     1.01366063
  WF centre and spread    5  (  1.923260,  1.923260,  1.923260 )     1.43417025
  WF centre and spread    6  (  1.923260,  1.923260,  0.000000 )     1.11709999
  WF centre and spread    7  (  1.923260,  1.923260,  0.000000 )     0.54296580
  WF centre and spread    8  (  1.923260,  1.923260,  0.000000 )     0.54296580
  WF centre and spread    9  (  1.923260,  0.000000,  0.000000 )     0.94722178
  WF centre and spread   10  (  1.923260, -0.000000, -0.000000 )     0.69744017
  WF centre and spread   11  (  1.923260, -0.000000, -0.000000 )     0.64741608
  WF centre and spread   12  (  0.000000,  1.923260, -0.000000 )     0.94722178
  WF centre and spread   13  (  0.000000,  1.923260, -0.000000 )     0.64741608
  WF centre and spread   14  ( -0.000000,  1.923260,  0.000000 )     0.69744017
  Sum of centres and spreads ( 21.155860, 21.155860,  9.616300 )    13.53294484

     10    -0.476E-02     0.0543859558       13.5329448400      45.65  <-- CONV
        O_D=      0.0000000 O_OD=      0.4572607 O_TOT=     13.5329448 <-- SPRD
 Delta: O_D=  0.1755414E-16 O_OD= -0.4755334E-02 O_TOT= -0.4755334E-02 <-- DLTA
 ------------------------------------------------------------------------------
 Cycle:     11
  WF centre and spread    1  (  1.923260,  1.923260,  1.923260 )     2.62710257
  WF centre and spread    2  (  1.923260,  1.923260,  1.923260 )     0.84089767
  WF centre and spread    3  (  1.923260,  1.923260,  1.923260 )     0.84089767
  WF centre and spread    4  (  1.923260,  1.923260,  1.923260 )     1.01211063
  WF centre and spread    5  (  1.923260,  1.923260,  1.923260 )     1.43415182
  WF centre and spread    6  (  1.923260,  1.923260,  0.000000 )     1.10459957
  WF centre and spread    7  (  1.923260,  1.923260,  0.000000 )     0.54300208
  WF centre and spread    8  (  1.923260,  1.923260,  0.000000 )     0.54300208
  WF centre and spread    9  (  1.923260,  0.000000,  0.000000 )     0.94693965
  WF centre and spread   10  (  1.923260, -0.000000, -0.000000 )     0.69748333
  WF centre and spread   11  (  1.923260, -0.000000, -0.000000 )     0.64732804
  WF centre and spread   12  (  0.000000,  1.923260, -0.000000 )     0.94693965
  WF centre and spread   13  (  0.000000,  1.923260, -0.000000 )     0.64732804
  WF centre and spread   14  ( -0.000000,  1.923260,  0.000000 )     0.69748333
  Sum of centres and spreads ( 21.155860, 21.155860,  9.616300 )    13.52926614

     11    -0.368E-02     0.0478815451       13.5292661354      45.84  <-- CONV
        O_D=      0.0000000 O_OD=      0.4535820 O_TOT=     13.5292661 <-- SPRD
 Delta: O_D=  0.3172645E-16 O_OD= -0.3678705E-02 O_TOT= -0.3678705E-02 <-- DLTA
 ------------------------------------------------------------------------------
 Cycle:     12
  WF centre and spread    1  (  1.923260,  1.923260,  1.923260 )     2.63629700
  WF centre and spread    2  (  1.923260,  1.923260,  1.923260 )     0.84097307
  WF centre and spread    3  (  1.923260,  1.923260,  1.923260 )     0.84097307
  WF centre and spread    4  (  1.923260,  1.923260,  1.923260 )     1.01145579
  WF centre and spread    5  (  1.923260,  1.923260,  1.923260 )     1.43428521
  WF centre and spread    6  (  1.923260,  1.923260,  0.000000 )     1.09386712
  WF centre and spread    7  (  1.923260,  1.923260,  0.000000 )     0.54305586
  WF centre and spread    8  (  1.923260,  1.923260,  0.000000 )     0.54305586
  WF centre and spread    9  (  1.923260,  0.000000,  0.000000 )     0.94672792
  WF centre and spread   10  (  1.923260, -0.000000, -0.000000 )     0.69743750
  WF centre and spread   11  (  1.923260, -0.000000, -0.000000 )     0.64726703
  WF centre and spread   12  (  0.000000,  1.923260, -0.000000 )     0.94672792
  WF centre and spread   13  (  0.000000,  1.923260, -0.000000 )     0.64726703
  WF centre and spread   14  ( -0.000000,  1.923260,  0.000000 )     0.69743750
  Sum of centres and spreads ( 21.155860, 21.155860,  9.616300 )    13.52682786

     12    -0.244E-02     0.0395462064       13.5268278637      46.03  <-- CONV
        O_D=      0.0000000 O_OD=      0.4511437 O_TOT=     13.5268279 <-- SPRD
 Delta: O_D=  0.7902067E-16 O_OD= -0.2438272E-02 O_TOT= -0.2438272E-02 <-- DLTA
 ------------------------------------------------------------------------------
 Cycle:     13
  WF centre and spread    1  (  1.923260,  1.923260,  1.923260 )     2.63694191
  WF centre and spread    2  (  1.923260,  1.923260,  1.923260 )     0.84097210
  WF centre and spread    3  (  1.923260,  1.923260,  1.923260 )     0.84097210
  WF centre and spread    4  (  1.923260,  1.923260,  1.923260 )     1.01160787
  WF centre and spread    5  (  1.923260,  1.923260,  1.923260 )     1.43431232
  WF centre and spread    6  (  1.923260,  1.923260,  0.000000 )     1.09212469
  WF centre and spread    7  (  1.923260,  1.923260,  0.000000 )     0.54303319
  WF centre and spread    8  (  1.923260,  1.923260,  0.000000 )     0.54303319
  WF centre and spread    9  (  1.923260,  0.000000,  0.000000 )     0.94670528
  WF centre and spread   10  (  1.923260, -0.000000, -0.000000 )     0.69735242
  WF centre and spread   11  (  1.923260, -0.000000, -0.000000 )     0.64721393
  WF centre and spread   12  (  0.000000,  1.923260, -0.000000 )     0.94670528
  WF centre and spread   13  (  0.000000,  1.923260, -0.000000 )     0.64721393
  WF centre and spread   14  ( -0.000000,  1.923260,  0.000000 )     0.69735242
  Sum of centres and spreads ( 21.155860, 21.155860,  9.616300 )    13.52554062

     13    -0.129E-02     0.0325704243       13.5255406198      46.23  <-- CONV
        O_D=      0.0000000 O_OD=      0.4498565 O_TOT=     13.5255406 <-- SPRD
 Delta: O_D=  0.4241143E-15 O_OD= -0.1287244E-02 O_TOT= -0.1287244E-02 <-- DLTA
 ------------------------------------------------------------------------------
 Cycle:     14
  WF centre and spread    1  (  1.923260,  1.923260,  1.923260 )     2.63938637
  WF centre and spread    2  (  1.923260,  1.923260,  1.923260 )     0.84099332
  WF centre and spread    3  (  1.923260,  1.923260,  1.923260 )     0.84099332
  WF centre and spread    4  (  1.923260,  1.923260,  1.923260 )     1.01215729
  WF centre and spread    5  (  1.923260,  1.923260,  1.923260 )     1.43446808
  WF centre and spread    6  (  1.923260,  1.923260,  0.000000 )     1.08775861
  WF centre and spread    7  (  1.923260,  1.923260,  0.000000 )     0.54300321
  WF centre and spread    8  (  1.923260,  1.923260,  0.000000 )     0.54300321
  WF centre and spread    9  (  1.923260,  0.000000,  0.000000 )     0.94670294
  WF centre and spread   10  (  1.923260, -0.000000, -0.000000 )     0.69721616
  WF centre and spread   11  (  1.923260, -0.000000, -0.000000 )     0.64717118
  WF centre and spread   12  (  0.000000,  1.923260, -0.000000 )     0.94670294
  WF centre and spread   13  (  0.000000,  1.923260, -0.000000 )     0.64717118
  WF centre and spread   14  ( -0.000000,  1.923260,  0.000000 )     0.69721616
  Sum of centres and spreads ( 21.155860, 21.155860,  9.616300 )    13.52394398

     14    -0.160E-02     0.0297827997       13.5239439793      46.42  <-- CONV
        O_D=      0.0000000 O_OD=      0.4482598 O_TOT=     13.5239440 <-- SPRD
 Delta: O_D=  0.1196548E-15 O_OD= -0.1596641E-02 O_TOT= -0.1596641E-02 <-- DLTA
 ------------------------------------------------------------------------------
 Cycle:     15
  WF centre and spread    1  (  1.923260,  1.923260,  1.923260 )     2.64280519
  WF centre and spread    2  (  1.923260,  1.923260,  1.923260 )     0.84101442
  WF centre and spread    3  (  1.923260,  1.923260,  1.923260 )     0.84101442
  WF centre and spread    4  (  1.923260,  1.923260,  1.923260 )     1.01296601
  WF centre and spread    5  (  1.923260,  1.923260,  1.923260 )     1.43463876
  WF centre and spread    6  (  1.923260,  1.923260,  0.000000 )     1.08212241
  WF centre and spread    7  (  1.923260,  1.923260,  0.000000 )     0.54300511
  WF centre and spread    8  (  1.923260,  1.923260,  0.000000 )     0.54300511
  WF centre and spread    9  (  1.923260,  0.000000,  0.000000 )     0.94670718
  WF centre and spread   10  (  1.923260, -0.000000, -0.000000 )     0.69712625
  WF centre and spread   11  (  1.923260, -0.000000, -0.000000 )     0.64716693
  WF centre and spread   12  (  0.000000,  1.923260, -0.000000 )     0.94670718
  WF centre and spread   13  (  0.000000,  1.923260, -0.000000 )     0.64716693
  WF centre and spread   14  ( -0.000000,  1.923260,  0.000000 )     0.69712625
  Sum of centres and spreads ( 21.155860, 21.155860,  9.616300 )    13.52257213

     15    -0.137E-02     0.0287976638       13.5225721318      46.61  <-- CONV
        O_D=      0.0000000 O_OD=      0.4468880 O_TOT=     13.5225721 <-- SPRD
 Delta: O_D=  0.1153814E-15 O_OD= -0.1371848E-02 O_TOT= -0.1371848E-02 <-- DLTA
 ------------------------------------------------------------------------------
 Cycle:     16
  WF centre and spread    1  (  1.923260,  1.923260,  1.923260 )     2.64660765
  WF centre and spread    2  (  1.923260,  1.923260,  1.923260 )     0.84101946
  WF centre and spread    3  (  1.923260,  1.923260,  1.923260 )     0.84101946
  WF centre and spread    4  (  1.923260,  1.923260,  1.923260 )     1.01374946
  WF centre and spread    5  (  1.923260,  1.923260,  1.923260 )     1.43479931
  WF centre and spread    6  (  1.923260,  1.923260,  0.000000 )     1.07629813
  WF centre and spread    7  (  1.923260,  1.923260,  0.000000 )     0.54303509
  WF centre and spread    8  (  1.923260,  1.923260,  0.000000 )     0.54303509
  WF centre and spread    9  (  1.923260,  0.000000,  0.000000 )     0.94671442
  WF centre and spread   10  (  1.923260, -0.000000, -0.000000 )     0.69709019
  WF centre and spread   11  (  1.923260, -0.000000, -0.000000 )     0.64717043
  WF centre and spread   12  (  0.000000,  1.923260, -0.000000 )     0.94671442
  WF centre and spread   13  (  0.000000,  1.923260, -0.000000 )     0.64717043
  WF centre and spread   14  ( -0.000000,  1.923260,  0.000000 )     0.69709019
  Sum of centres and spreads ( 21.155860, 21.155860,  9.616300 )    13.52151375

     16    -0.106E-02     0.0259424092       13.5215137532      46.80  <-- CONV
        O_D=      0.0000000 O_OD=      0.4458296 O_TOT=     13.5215138 <-- SPRD
 Delta: O_D=  0.8451256E-16 O_OD= -0.1058379E-02 O_TOT= -0.1058379E-02 <-- DLTA
 ------------------------------------------------------------------------------
 Cycle:     17
  WF centre and spread    1  (  1.923260,  1.923260,  1.923260 )     2.65041731
  WF centre and spread    2  (  1.923260,  1.923260,  1.923260 )     0.84103115
  WF centre and spread    3  (  1.923260,  1.923260,  1.923260 )     0.84103115
  WF centre and spread    4  (  1.923260,  1.923260,  1.923260 )     1.01429460
  WF centre and spread    5  (  1.923260,  1.923260,  1.923260 )     1.43489491
  WF centre and spread    6  (  1.923260,  1.923260,  0.000000 )     1.07103776
  WF centre and spread    7  (  1.923260,  1.923260,  0.000000 )     0.54306363
  WF centre and spread    8  (  1.923260,  1.923260,  0.000000 )     0.54306363
  WF centre and spread    9  (  1.923260,  0.000000,  0.000000 )     0.94672216
  WF centre and spread   10  (  1.923260, -0.000000, -0.000000 )     0.69708155
  WF centre and spread   11  (  1.923260, -0.000000, -0.000000 )     0.64716068
  WF centre and spread   12  (  0.000000,  1.923260, -0.000000 )     0.94672216
  WF centre and spread   13  (  0.000000,  1.923260, -0.000000 )     0.64716068
  WF centre and spread   14  ( -0.000000,  1.923260,  0.000000 )     0.69708155
  Sum of centres and spreads ( 21.155860, 21.155860,  9.616300 )    13.52076293

     17    -0.751E-03     0.0224020756       13.5207629340      47.00  <-- CONV
        O_D=      0.0000000 O_OD=      0.4450788 O_TOT=     13.5207629 <-- SPRD
 Delta: O_D= -0.4001143E-16 O_OD= -0.7508192E-03 O_TOT= -0.7508192E-03 <-- DLTA
 ------------------------------------------------------------------------------
 Cycle:     18
  WF centre and spread    1  (  1.923260,  1.923260,  1.923260 )     2.65431509
  WF centre and spread    2  (  1.923260,  1.923260,  1.923260 )     0.84106120
  WF centre and spread    3  (  1.923260,  1.923260,  1.923260 )     0.84106120
  WF centre and spread    4  (  1.923260,  1.923260,  1.923260 )     1.01450920
  WF centre and spread    5  (  1.923260,  1.923260,  1.923260 )     1.43489599
  WF centre and spread    6  (  1.923260,  1.923260,  0.000000 )     1.06634133
  WF centre and spread    7  (  1.923260,  1.923260,  0.000000 )     0.54308212
  WF centre and spread    8  (  1.923260,  1.923260,  0.000000 )     0.54308212
  WF centre and spread    9  (  1.923260,  0.000000,  0.000000 )     0.94671974
  WF centre and spread   10  (  1.923260, -0.000000, -0.000000 )     0.69707928
  WF centre and spread   11  (  1.923260, -0.000000, -0.000000 )     0.64713900
  WF centre and spread   12  (  0.000000,  1.923260, -0.000000 )     0.94671974
  WF centre and spread   13  (  0.000000,  1.923260, -0.000000 )     0.64713900
  WF centre and spread   14  ( -0.000000,  1.923260,  0.000000 )     0.69707928
  Sum of centres and spreads ( 21.155860, 21.155860,  9.616300 )    13.52022429

     18    -0.539E-03     0.0186689530       13.5202242880      47.19  <-- CONV
        O_D=      0.0000000 O_OD=      0.4445402 O_TOT=     13.5202243 <-- SPRD
 Delta: O_D=  0.4898078E-16 O_OD= -0.5386460E-03 O_TOT= -0.5386460E-03 <-- DLTA
 ------------------------------------------------------------------------------
 Cycle:     19
  WF centre and spread    1  (  1.923260,  1.923260,  1.923260 )     2.65492011
  WF centre and spread    2  (  1.923260,  1.923260,  1.923260 )     0.84107265
  WF centre and spread    3  (  1.923260,  1.923260,  1.923260 )     0.84107265
  WF centre and spread    4  (  1.923260,  1.923260,  1.923260 )     1.01432458
  WF centre and spread    5  (  1.923260,  1.923260,  1.923260 )     1.43482105
  WF centre and spread    6  (  1.923260,  1.923260,  0.000000 )     1.06569151
  WF centre and spread    7  (  1.923260,  1.923260,  0.000000 )     0.54307469
  WF centre and spread    8  (  1.923260,  1.923260,  0.000000 )     0.54307469
  WF centre and spread    9  (  1.923260,  0.000000,  0.000000 )     0.94670363
  WF centre and spread   10  (  1.923260, -0.000000, -0.000000 )     0.69707721
  WF centre and spread   11  (  1.923260, -0.000000, -0.000000 )     0.64712238
  WF centre and spread   12  (  0.000000,  1.923260, -0.000000 )     0.94670363
  WF centre and spread   13  (  0.000000,  1.923260, -0.000000 )     0.64712238
  WF centre and spread   14  ( -0.000000,  1.923260,  0.000000 )     0.69707721
  Sum of centres and spreads ( 21.155860, 21.155860,  9.616300 )    13.51985836

     19    -0.366E-03     0.0184366331       13.5198583643      47.38  <-- CONV
        O_D=      0.0000000 O_OD=      0.4441742 O_TOT=     13.5198584 <-- SPRD
 Delta: O_D=  0.9863674E-15 O_OD= -0.3659237E-03 O_TOT= -0.3659237E-03 <-- DLTA
 ------------------------------------------------------------------------------
 Cycle:     20
  WF centre and spread    1  (  1.923260,  1.923260,  1.923260 )     2.65648268
  WF centre and spread    2  (  1.923260,  1.923260,  1.923260 )     0.84109678
  WF centre and spread    3  (  1.923260,  1.923260,  1.923260 )     0.84109678
  WF centre and spread    4  (  1.923260,  1.923260,  1.923260 )     1.01396585
  WF centre and spread    5  (  1.923260,  1.923260,  1.923260 )     1.43471143
  WF centre and spread    6  (  1.923260,  1.923260,  0.000000 )     1.06427772
  WF centre and spread    7  (  1.923260,  1.923260,  0.000000 )     0.54306331
  WF centre and spread    8  (  1.923260,  1.923260,  0.000000 )     0.54306331
  WF centre and spread    9  (  1.923260,  0.000000,  0.000000 )     0.94669094
  WF centre and spread   10  (  1.923260, -0.000000, -0.000000 )     0.69709018
  WF centre and spread   11  (  1.923260, -0.000000, -0.000000 )     0.64710247
  WF centre and spread   12  (  0.000000,  1.923260, -0.000000 )     0.94669093
  WF centre and spread   13  (  0.000000,  1.923260, -0.000000 )     0.64710247
  WF centre and spread   14  ( -0.000000,  1.923260,  0.000000 )     0.69709018
  Sum of centres and spreads ( 21.155860, 21.155860,  9.616300 )    13.51952502

     20    -0.333E-03     0.0144103690       13.5195250237      47.58  <-- CONV
        O_D=      0.0000000 O_OD=      0.4438409 O_TOT=     13.5195250 <-- SPRD
 Delta: O_D=  0.2362879E-15 O_OD= -0.3333406E-03 O_TOT= -0.3333406E-03 <-- DLTA
 ------------------------------------------------------------------------------
 Cycle:     21
  WF centre and spread    1  (  1.923260,  1.923260,  1.923260 )     2.65860954
  WF centre and spread    2  (  1.923260,  1.923260,  1.923260 )     0.84112622
  WF centre and spread    3  (  1.923260,  1.923260,  1.923260 )     0.84112622
  WF centre and spread    4  (  1.923260,  1.923260,  1.923260 )     1.01359572
  WF centre and spread    5  (  1.923260,  1.923260,  1.923260 )     1.43461067
  WF centre and spread    6  (  1.923260,  1.923260,  0.000000 )     1.06230246
  WF centre and spread    7  (  1.923260,  1.923260,  0.000000 )     0.54305445
  WF centre and spread    8  (  1.923260,  1.923260,  0.000000 )     0.54305445
  WF centre and spread    9  (  1.923260,  0.000000,  0.000000 )     0.94668631
  WF centre and spread   10  (  1.923260, -0.000000, -0.000000 )     0.69711690
  WF centre and spread   11  (  1.923260, -0.000000, -0.000000 )     0.64707782
  WF centre and spread   12  (  0.000000,  1.923260, -0.000000 )     0.94668631
  WF centre and spread   13  (  0.000000,  1.923260, -0.000000 )     0.64707782
  WF centre and spread   14  ( -0.000000,  1.923260,  0.000000 )     0.69711690
  Sum of centres and spreads ( 21.155860, 21.155860,  9.616300 )    13.51924180

     21    -0.283E-03     0.0131944956       13.5192418029      47.77  <-- CONV
        O_D=      0.0000000 O_OD=      0.4435577 O_TOT=     13.5192418 <-- SPRD
 Delta: O_D=  0.3109779E-16 O_OD= -0.2832208E-03 O_TOT= -0.2832208E-03 <-- DLTA
 ------------------------------------------------------------------------------
 Cycle:     22
  WF centre and spread    1  (  1.923260,  1.923260,  1.923260 )     2.66074417
  WF centre and spread    2  (  1.923260,  1.923260,  1.923260 )     0.84114849
  WF centre and spread    3  (  1.923260,  1.923260,  1.923260 )     0.84114849
  WF centre and spread    4  (  1.923260,  1.923260,  1.923260 )     1.01335119
  WF centre and spread    5  (  1.923260,  1.923260,  1.923260 )     1.43455792
  WF centre and spread    6  (  1.923260,  1.923260,  0.000000 )     1.06019246
  WF centre and spread    7  (  1.923260,  1.923260,  0.000000 )     0.54305383
  WF centre and spread    8  (  1.923260,  1.923260,  0.000000 )     0.54305383
  WF centre and spread    9  (  1.923260,  0.000000,  0.000000 )     0.94668331
  WF centre and spread   10  (  1.923260, -0.000000, -0.000000 )     0.69714508
  WF centre and spread   11  (  1.923260, -0.000000, -0.000000 )     0.64706446
  WF centre and spread   12  (  0.000000,  1.923260, -0.000000 )     0.94668331
  WF centre and spread   13  (  0.000000,  1.923260, -0.000000 )     0.64706446
  WF centre and spread   14  ( -0.000000,  1.923260,  0.000000 )     0.69714508
  Sum of centres and spreads ( 21.155860, 21.155860,  9.616300 )    13.51903609

     22    -0.206E-03     0.0115088080       13.5190360866      47.97  <-- CONV
        O_D=      0.0000000 O_OD=      0.4433520 O_TOT=     13.5190361 <-- SPRD
 Delta: O_D=  0.2082908E-15 O_OD= -0.2057163E-03 O_TOT= -0.2057163E-03 <-- DLTA
 ------------------------------------------------------------------------------
 Cycle:     23
  WF centre and spread    1  (  1.923260,  1.923260,  1.923260 )     2.66269940
  WF centre and spread    2  (  1.923260,  1.923260,  1.923260 )     0.84116178
  WF centre and spread    3  (  1.923260,  1.923260,  1.923260 )     0.84116178
  WF centre and spread    4  (  1.923260,  1.923260,  1.923260 )     1.01323605
  WF centre and spread    5  (  1.923260,  1.923260,  1.923260 )     1.43453785
  WF centre and spread    6  (  1.923260,  1.923260,  0.000000 )     1.05816152
  WF centre and spread    7  (  1.923260,  1.923260,  0.000000 )     0.54305891
  WF centre and spread    8  (  1.923260,  1.923260,  0.000000 )     0.54305891
  WF centre and spread    9  (  1.923260,  0.000000,  0.000000 )     0.94667981
  WF centre and spread   10  (  1.923260, -0.000000, -0.000000 )     0.69716195
  WF centre and spread   11  (  1.923260, -0.000000, -0.000000 )     0.64706674
  WF centre and spread   12  (  0.000000,  1.923260, -0.000000 )     0.94667981
  WF centre and spread   13  (  0.000000,  1.923260, -0.000000 )     0.64706674
  WF centre and spread   14  ( -0.000000,  1.923260,  0.000000 )     0.69716195
  Sum of centres and spreads ( 21.155860, 21.155860,  9.616300 )    13.51889318

     23    -0.143E-03     0.0096661877       13.5188931765      48.16  <-- CONV
        O_D=      0.0000000 O_OD=      0.4432090 O_TOT=     13.5188932 <-- SPRD
 Delta: O_D=  0.4114255E-15 O_OD= -0.1429101E-03 O_TOT= -0.1429101E-03 <-- DLTA
 ------------------------------------------------------------------------------
 Cycle:     24
  WF centre and spread    1  (  1.923260,  1.923260,  1.923260 )     2.66411606
  WF centre and spread    2  (  1.923260,  1.923260,  1.923260 )     0.84117325
  WF centre and spread    3  (  1.923260,  1.923260,  1.923260 )     0.84117325
  WF centre and spread    4  (  1.923260,  1.923260,  1.923260 )     1.01320939
  WF centre and spread    5  (  1.923260,  1.923260,  1.923260 )     1.43453902
  WF centre and spread    6  (  1.923260,  1.923260,  0.000000 )     1.05665444
  WF centre and spread    7  (  1.923260,  1.923260,  0.000000 )     0.54306448
  WF centre and spread    8  (  1.923260,  1.923260,  0.000000 )     0.54306448
  WF centre and spread    9  (  1.923260,  0.000000,  0.000000 )     0.94668118
  WF centre and spread   10  (  1.923260, -0.000000, -0.000000 )     0.69716137
  WF centre and spread   11  (  1.923260, -0.000000, -0.000000 )     0.64706698
  WF centre and spread   12  (  0.000000,  1.923260, -0.000000 )     0.94668118
  WF centre and spread   13  (  0.000000,  1.923260, -0.000000 )     0.64706698
  WF centre and spread   14  ( -0.000000,  1.923260,  0.000000 )     0.69716137
  Sum of centres and spreads ( 21.155860, 21.155860,  9.616300 )    13.51881344

     24    -0.797E-04     0.0078430005       13.5188134405      48.35  <-- CONV
        O_D=      0.0000000 O_OD=      0.4431293 O_TOT=     13.5188134 <-- SPRD
 Delta: O_D= -0.8276251E-15 O_OD= -0.7973598E-04 O_TOT= -0.7973598E-04 <-- DLTA
 ------------------------------------------------------------------------------
 Cycle:     25
  WF centre and spread    1  (  1.923260,  1.923260,  1.923260 )     2.66433742
  WF centre and spread    2  (  1.923260,  1.923260,  1.923260 )     0.84117381
  WF centre and spread    3  (  1.923260,  1.923260,  1.923260 )     0.84117381
  WF centre and spread    4  (  1.923260,  1.923260,  1.923260 )     1.01322780
  WF centre and spread    5  (  1.923260,  1.923260,  1.923260 )     1.43455250
  WF centre and spread    6  (  1.923260,  1.923260,  0.000000 )     1.05637095
  WF centre and spread    7  (  1.923260,  1.923260,  0.000000 )     0.54306498
  WF centre and spread    8  (  1.923260,  1.923260,  0.000000 )     0.54306498
  WF centre and spread    9  (  1.923260,  0.000000,  0.000000 )     0.94668440
  WF centre and spread   10  (  1.923260, -0.000000, -0.000000 )     0.69715190
  WF centre and spread   11  (  1.923260, -0.000000, -0.000000 )     0.64705768
  WF centre and spread   12  (  0.000000,  1.923260, -0.000000 )     0.94668440
  WF centre and spread   13  (  0.000000,  1.923260, -0.000000 )     0.64705768
  WF centre and spread   14  ( -0.000000,  1.923260,  0.000000 )     0.69715190
  Sum of centres and spreads ( 21.155860, 21.155860,  9.616300 )    13.51875419

     25    -0.592E-04     0.0072102083       13.5187541946      48.54  <-- CONV
        O_D=      0.0000000 O_OD=      0.4430701 O_TOT=     13.5187542 <-- SPRD
 Delta: O_D=  0.2907400E-14 O_OD= -0.5924597E-04 O_TOT= -0.5924597E-04 <-- DLTA
 ------------------------------------------------------------------------------
 Cycle:     26
  WF centre and spread    1  (  1.923260,  1.923260,  1.923260 )     2.66498983
  WF centre and spread    2  (  1.923260,  1.923260,  1.923260 )     0.84117794
  WF centre and spread    3  (  1.923260,  1.923260,  1.923260 )     0.84117794
  WF centre and spread    4  (  1.923260,  1.923260,  1.923260 )     1.01328883
  WF centre and spread    5  (  1.923260,  1.923260,  1.923260 )     1.43458508
  WF centre and spread    6  (  1.923260,  1.923260,  0.000000 )     1.05557778
  WF centre and spread    7  (  1.923260,  1.923260,  0.000000 )     0.54306753
  WF centre and spread    8  (  1.923260,  1.923260,  0.000000 )     0.54306753
  WF centre and spread    9  (  1.923260,  0.000000,  0.000000 )     0.94669542
  WF centre and spread   10  (  1.923260, -0.000000, -0.000000 )     0.69713175
  WF centre and spread   11  (  1.923260, -0.000000, -0.000000 )     0.64704659
  WF centre and spread   12  (  0.000000,  1.923260, -0.000000 )     0.94669542
  WF centre and spread   13  (  0.000000,  1.923260, -0.000000 )     0.64704659
  WF centre and spread   14  ( -0.000000,  1.923260,  0.000000 )     0.69713175
  Sum of centres and spreads ( 21.155860, 21.155860,  9.616300 )    13.51867998

     26    -0.742E-04     0.0063879417       13.5186799757      48.74  <-- CONV
        O_D=      0.0000000 O_OD=      0.4429958 O_TOT=     13.5186800 <-- SPRD
 Delta: O_D=  0.3723983E-15 O_OD= -0.7421888E-04 O_TOT= -0.7421888E-04 <-- DLTA
 ------------------------------------------------------------------------------
 Cycle:     27
  WF centre and spread    1  (  1.923260,  1.923260,  1.923260 )     2.66587058
  WF centre and spread    2  (  1.923260,  1.923260,  1.923260 )     0.84118230
  WF centre and spread    3  (  1.923260,  1.923260,  1.923260 )     0.84118230
  WF centre and spread    4  (  1.923260,  1.923260,  1.923260 )     1.01338830
  WF centre and spread    5  (  1.923260,  1.923260,  1.923260 )     1.43462128
  WF centre and spread    6  (  1.923260,  1.923260,  0.000000 )     1.05448506
  WF centre and spread    7  (  1.923260,  1.923260,  0.000000 )     0.54307259
  WF centre and spread    8  (  1.923260,  1.923260,  0.000000 )     0.54307259
  WF centre and spread    9  (  1.923260,  0.000000,  0.000000 )     0.94670881
  WF centre and spread   10  (  1.923260, -0.000000, -0.000000 )     0.69711349
  WF centre and spread   11  (  1.923260, -0.000000, -0.000000 )     0.64704733
  WF centre and spread   12  (  0.000000,  1.923260, -0.000000 )     0.94670881
  WF centre and spread   13  (  0.000000,  1.923260, -0.000000 )     0.64704733
  WF centre and spread   14  ( -0.000000,  1.923260,  0.000000 )     0.69711349
  Sum of centres and spreads ( 21.155860, 21.155860,  9.616300 )    13.51861426

     27    -0.657E-04     0.0062358385       13.5186142642      48.93  <-- CONV
        O_D=      0.0000000 O_OD=      0.4429301 O_TOT=     13.5186143 <-- SPRD
 Delta: O_D=  0.6779237E-15 O_OD= -0.6571145E-04 O_TOT= -0.6571145E-04 <-- DLTA
 ------------------------------------------------------------------------------
 Cycle:     28
  WF centre and spread    1  (  1.923260,  1.923260,  1.923260 )     2.66679864
  WF centre and spread    2  (  1.923260,  1.923260,  1.923260 )     0.84118570
  WF centre and spread    3  (  1.923260,  1.923260,  1.923260 )     0.84118570
  WF centre and spread    4  (  1.923260,  1.923260,  1.923260 )     1.01349946
  WF centre and spread    5  (  1.923260,  1.923260,  1.923260 )     1.43465789
  WF centre and spread    6  (  1.923260,  1.923260,  0.000000 )     1.05332071
  WF centre and spread    7  (  1.923260,  1.923260,  0.000000 )     0.54307853
  WF centre and spread    8  (  1.923260,  1.923260,  0.000000 )     0.54307853
  WF centre and spread    9  (  1.923260,  0.000000,  0.000000 )     0.94672338
  WF centre and spread   10  (  1.923260, -0.000000, -0.000000 )     0.69710328
  WF centre and spread   11  (  1.923260, -0.000000, -0.000000 )     0.64705256
  WF centre and spread   12  (  0.000000,  1.923260, -0.000000 )     0.94672338
  WF centre and spread   13  (  0.000000,  1.923260, -0.000000 )     0.64705256
  WF centre and spread   14  ( -0.000000,  1.923260,  0.000000 )     0.69710328
  Sum of centres and spreads ( 21.155860, 21.155860,  9.616300 )    13.51856359

     28    -0.507E-04     0.0056132537       13.5185635937      49.12  <-- CONV
        O_D=      0.0000000 O_OD=      0.4428795 O_TOT=     13.5185636 <-- SPRD
 Delta: O_D=  0.1523200E-14 O_OD= -0.5067054E-04 O_TOT= -0.5067054E-04 <-- DLTA
 ------------------------------------------------------------------------------
 Cycle:     29
  WF centre and spread    1  (  1.923260,  1.923260,  1.923260 )     2.66766470
  WF centre and spread    2  (  1.923260,  1.923260,  1.923260 )     0.84118970
  WF centre and spread    3  (  1.923260,  1.923260,  1.923260 )     0.84118970
  WF centre and spread    4  (  1.923260,  1.923260,  1.923260 )     1.01357841
  WF centre and spread    5  (  1.923260,  1.923260,  1.923260 )     1.43467818
  WF centre and spread    6  (  1.923260,  1.923260,  0.000000 )     1.05227582
  WF centre and spread    7  (  1.923260,  1.923260,  0.000000 )     0.54308387
  WF centre and spread    8  (  1.923260,  1.923260,  0.000000 )     0.54308387
  WF centre and spread    9  (  1.923260,  0.000000,  0.000000 )     0.94673834
  WF centre and spread   10  (  1.923260, -0.000000, -0.000000 )     0.69710044
  WF centre and spread   11  (  1.923260, -0.000000, -0.000000 )     0.64705344
  WF centre and spread   12  (  0.000000,  1.923260, -0.000000 )     0.94673834
  WF centre and spread   13  (  0.000000,  1.923260, -0.000000 )     0.64705344
  WF centre and spread   14  ( -0.000000,  1.923260,  0.000000 )     0.69710044
  Sum of centres and spreads ( 21.155860, 21.155860,  9.616300 )    13.51852870

     29    -0.349E-04     0.0048233832       13.5185286952      49.31  <-- CONV
[...]

     89    -0.198E-10     0.0000072976       13.5184143800      60.25  <-- CONV
        O_D=      0.0000000 O_OD=      0.4427303 O_TOT=     13.5184144 <-- SPRD
 Delta: O_D= -0.1426442E-12 O_OD= -0.1964673E-10 O_TOT= -0.1978862E-10 <-- DLTA
 ------------------------------------------------------------------------------
 Cycle:     90
  WF centre and spread    1  (  1.923260,  1.923260,  1.923260 )     2.67244934
  WF centre and spread    2  (  1.923260,  1.923260,  1.923260 )     0.84122770
  WF centre and spread    3  (  1.923260,  1.923260,  1.923260 )     0.84122770
  WF centre and spread    4  (  1.923260,  1.923260,  1.923260 )     1.01348728
  WF centre and spread    5  (  1.923260,  1.923260,  1.923260 )     1.43461998
  WF centre and spread    6  (  1.923260,  1.923260,  0.000000 )     1.04726682
  WF centre and spread    7  (  1.923260,  1.923260,  0.000000 )     0.54310063
  WF centre and spread    8  (  1.923260,  1.923260,  0.000000 )     0.54310063
  WF centre and spread    9  (  1.923260,  0.000000,  0.000000 )     0.94681530
  WF centre and spread   10  (  1.923260, -0.000000, -0.000000 )     0.69712191
  WF centre and spread   11  (  1.923260, -0.000000, -0.000000 )     0.64702994
  WF centre and spread   12  (  0.000000,  1.923260, -0.000000 )     0.94681530
  WF centre and spread   13  (  0.000000,  1.923260, -0.000000 )     0.64702994
  WF centre and spread   14  ( -0.000000,  1.923260,  0.000000 )     0.69712191
  Sum of centres and spreads ( 21.155860, 21.155860,  9.616300 )    13.51841438

     90    -0.891E-10     0.0000070194       13.5184143799      60.44  <-- CONV
        O_D=      0.0000000 O_OD=      0.4427303 O_TOT=     13.5184144 <-- SPRD
 Delta: O_D=  0.4886183E-12 O_OD= -0.8962481E-10 O_TOT= -0.8913581E-10 <-- DLTA
 ------------------------------------------------------------------------------
 Cycle:     91
  WF centre and spread    1  (  1.923260,  1.923260,  1.923260 )     2.67244935
  WF centre and spread    2  (  1.923260,  1.923260,  1.923260 )     0.84122770
  WF centre and spread    3  (  1.923260,  1.923260,  1.923260 )     0.84122770
  WF centre and spread    4  (  1.923260,  1.923260,  1.923260 )     1.01348728
  WF centre and spread    5  (  1.923260,  1.923260,  1.923260 )     1.43461998
  WF centre and spread    6  (  1.923260,  1.923260,  0.000000 )     1.04726681
  WF centre and spread    7  (  1.923260,  1.923260,  0.000000 )     0.54310063
  WF centre and spread    8  (  1.923260,  1.923260,  0.000000 )     0.54310063
  WF centre and spread    9  (  1.923260,  0.000000,  0.000000 )     0.94681530
  WF centre and spread   10  (  1.923260, -0.000000, -0.000000 )     0.69712191
  WF centre and spread   11  (  1.923260, -0.000000, -0.000000 )     0.64702994
  WF centre and spread   12  (  0.000000,  1.923260, -0.000000 )     0.94681530
  WF centre and spread   13  (  0.000000,  1.923260, -0.000000 )     0.64702994
  WF centre and spread   14  ( -0.000000,  1.923260,  0.000000 )     0.69712191
  Sum of centres and spreads ( 21.155860, 21.155860,  9.616300 )    13.51841438

     91    -0.111E-11     0.0000069793       13.5184143799      60.55  <-- CONV
        O_D=      0.0000000 O_OD=      0.4427303 O_TOT=     13.5184144 <-- SPRD
 Delta: O_D=  0.4764083E-14 O_OD= -0.1114220E-11 O_TOT= -0.1110223E-11 <-- DLTA
 ------------------------------------------------------------------------------
 Cycle:     92
  WF centre and spread    1  (  1.923260,  1.923260,  1.923260 )     2.67244959
  WF centre and spread    2  (  1.923260,  1.923260,  1.923260 )     0.84122770
  WF centre and spread    3  (  1.923260,  1.923260,  1.923260 )     0.84122770
  WF centre and spread    4  (  1.923260,  1.923260,  1.923260 )     1.01348728
  WF centre and spread    5  (  1.923260,  1.923260,  1.923260 )     1.43461997
  WF centre and spread    6  (  1.923260,  1.923260,  0.000000 )     1.04726655
  WF centre and spread    7  (  1.923260,  1.923260,  0.000000 )     0.54310063
  WF centre and spread    8  (  1.923260,  1.923260,  0.000000 )     0.54310063
  WF centre and spread    9  (  1.923260,  0.000000,  0.000000 )     0.94681531
  WF centre and spread   10  (  1.923260, -0.000000, -0.000000 )     0.69712191
  WF centre and spread   11  (  1.923260, -0.000000, -0.000000 )     0.64702994
  WF centre and spread   12  (  0.000000,  1.923260, -0.000000 )     0.94681531
  WF centre and spread   13  (  0.000000,  1.923260, -0.000000 )     0.64702994
  WF centre and spread   14  ( -0.000000,  1.923260,  0.000000 )     0.69712191
  Sum of centres and spreads ( 21.155860, 21.155860,  9.616300 )    13.51841438

     92    -0.417E-10     0.0000069830       13.5184143799      60.74  <-- CONV
        O_D=      0.0000000 O_OD=      0.4427303 O_TOT=     13.5184144 <-- SPRD
 Delta: O_D= -0.9862185E-13 O_OD= -0.4164347E-10 O_TOT= -0.4174261E-10 <-- DLTA
 ------------------------------------------------------------------------------
 Cycle:     93
  WF centre and spread    1  (  1.923260,  1.923260,  1.923260 )     2.67244960
  WF centre and spread    2  (  1.923260,  1.923260,  1.923260 )     0.84122770
  WF centre and spread    3  (  1.923260,  1.923260,  1.923260 )     0.84122770
  WF centre and spread    4  (  1.923260,  1.923260,  1.923260 )     1.01348728
  WF centre and spread    5  (  1.923260,  1.923260,  1.923260 )     1.43461997
  WF centre and spread    6  (  1.923260,  1.923260,  0.000000 )     1.04726654
  WF centre and spread    7  (  1.923260,  1.923260,  0.000000 )     0.54310063
  WF centre and spread    8  (  1.923260,  1.923260,  0.000000 )     0.54310063
  WF centre and spread    9  (  1.923260,  0.000000,  0.000000 )     0.94681531
  WF centre and spread   10  (  1.923260, -0.000000, -0.000000 )     0.69712191
  WF centre and spread   11  (  1.923260, -0.000000, -0.000000 )     0.64702994
  WF centre and spread   12  (  0.000000,  1.923260, -0.000000 )     0.94681531
  WF centre and spread   13  (  0.000000,  1.923260, -0.000000 )     0.64702994
  WF centre and spread   14  ( -0.000000,  1.923260,  0.000000 )     0.69712191
  Sum of centres and spreads ( 21.155860, 21.155860,  9.616300 )    13.51841438

     93    -0.172E-11     0.0000069412       13.5184143799      60.85  <-- CONV
        O_D=      0.0000000 O_OD=      0.4427303 O_TOT=     13.5184144 <-- SPRD
 Delta: O_D= -0.9872193E-14 O_OD= -0.1714018E-11 O_TOT= -0.1724842E-11 <-- DLTA
 ------------------------------------------------------------------------------
 Cycle:     94
  WF centre and spread    1  (  1.923260,  1.923260,  1.923260 )     2.67244965
  WF centre and spread    2  (  1.923260,  1.923260,  1.923260 )     0.84122770
  WF centre and spread    3  (  1.923260,  1.923260,  1.923260 )     0.84122770
  WF centre and spread    4  (  1.923260,  1.923260,  1.923260 )     1.01348728
  WF centre and spread    5  (  1.923260,  1.923260,  1.923260 )     1.43461997
  WF centre and spread    6  (  1.923260,  1.923260,  0.000000 )     1.04726648
  WF centre and spread    7  (  1.923260,  1.923260,  0.000000 )     0.54310063
  WF centre and spread    8  (  1.923260,  1.923260,  0.000000 )     0.54310063
  WF centre and spread    9  (  1.923260,  0.000000,  0.000000 )     0.94681532
  WF centre and spread   10  (  1.923260, -0.000000, -0.000000 )     0.69712191
  WF centre and spread   11  (  1.923260, -0.000000, -0.000000 )     0.64702994
  WF centre and spread   12  (  0.000000,  1.923260, -0.000000 )     0.94681532
  WF centre and spread   13  (  0.000000,  1.923260, -0.000000 )     0.64702994
  WF centre and spread   14  ( -0.000000,  1.923260,  0.000000 )     0.69712191
  Sum of centres and spreads ( 21.155860, 21.155860,  9.616300 )    13.51841438

     94    -0.101E-10     0.0000069340       13.5184143799      61.04  <-- CONV
        O_D=      0.0000000 O_OD=      0.4427303 O_TOT=     13.5184144 <-- SPRD
 Delta: O_D= -0.1782291E-12 O_OD= -0.9892587E-11 O_TOT= -0.1007017E-10 <-- DLTA
 ------------------------------------------------------------------------------
 Cycle:     95
  WF centre and spread    1  (  1.923260,  1.923260,  1.923260 )     2.67244965
  WF centre and spread    2  (  1.923260,  1.923260,  1.923260 )     0.84122770
  WF centre and spread    3  (  1.923260,  1.923260,  1.923260 )     0.84122770
  WF centre and spread    4  (  1.923260,  1.923260,  1.923260 )     1.01348728
  WF centre and spread    5  (  1.923260,  1.923260,  1.923260 )     1.43461997
  WF centre and spread    6  (  1.923260,  1.923260,  0.000000 )     1.04726648
  WF centre and spread    7  (  1.923260,  1.923260,  0.000000 )     0.54310063
  WF centre and spread    8  (  1.923260,  1.923260,  0.000000 )     0.54310063
  WF centre and spread    9  (  1.923260,  0.000000,  0.000000 )     0.94681532
  WF centre and spread   10  (  1.923260, -0.000000, -0.000000 )     0.69712191
  WF centre and spread   11  (  1.923260, -0.000000, -0.000000 )     0.64702994
  WF centre and spread   12  (  0.000000,  1.923260, -0.000000 )     0.94681532
  WF centre and spread   13  (  0.000000,  1.923260, -0.000000 )     0.64702994
  WF centre and spread   14  ( -0.000000,  1.923260,  0.000000 )     0.69712191
  Sum of centres and spreads ( 21.155860, 21.155860,  9.616300 )    13.51841438

     95    -0.647E-12     0.0000067584       13.5184143799      61.15  <-- CONV
        O_D=      0.0000000 O_OD=      0.4427303 O_TOT=     13.5184144 <-- SPRD
 Delta: O_D= -0.8545823E-14 O_OD= -0.6380452E-12 O_TOT= -0.6465939E-12 <-- DLTA
 ------------------------------------------------------------------------------
 Cycle:     96
  WF centre and spread    1  (  1.923260,  1.923260,  1.923260 )     2.67244979
  WF centre and spread    2  (  1.923260,  1.923260,  1.923260 )     0.84122771
  WF centre and spread    3  (  1.923260,  1.923260,  1.923260 )     0.84122771
  WF centre and spread    4  (  1.923260,  1.923260,  1.923260 )     1.01348728
  WF centre and spread    5  (  1.923260,  1.923260,  1.923260 )     1.43461997
  WF centre and spread    6  (  1.923260,  1.923260,  0.000000 )     1.04726632
  WF centre and spread    7  (  1.923260,  1.923260,  0.000000 )     0.54310063
  WF centre and spread    8  (  1.923260,  1.923260,  0.000000 )     0.54310063
  WF centre and spread    9  (  1.923260,  0.000000,  0.000000 )     0.94681532
  WF centre and spread   10  (  1.923260, -0.000000, -0.000000 )     0.69712191
  WF centre and spread   11  (  1.923260, -0.000000, -0.000000 )     0.64702994
  WF centre and spread   12  (  0.000000,  1.923260, -0.000000 )     0.94681532
  WF centre and spread   13  (  0.000000,  1.923260, -0.000000 )     0.64702994
  WF centre and spread   14  ( -0.000000,  1.923260,  0.000000 )     0.69712191
  Sum of centres and spreads ( 21.155860, 21.155860,  9.616300 )    13.51841438

     96    -0.264E-10     0.0000067491       13.5184143798      61.34  <-- CONV
        O_D=      0.0000000 O_OD=      0.4427303 O_TOT=     13.5184144 <-- SPRD
 Delta: O_D= -0.2212260E-12 O_OD= -0.2616601E-10 O_TOT= -0.2638600E-10 <-- DLTA
 ------------------------------------------------------------------------------
 Cycle:     97
  WF centre and spread    1  (  1.923260,  1.923260,  1.923260 )     2.67244980
  WF centre and spread    2  (  1.923260,  1.923260,  1.923260 )     0.84122771
  WF centre and spread    3  (  1.923260,  1.923260,  1.923260 )     0.84122771
  WF centre and spread    4  (  1.923260,  1.923260,  1.923260 )     1.01348728
  WF centre and spread    5  (  1.923260,  1.923260,  1.923260 )     1.43461997
  WF centre and spread    6  (  1.923260,  1.923260,  0.000000 )     1.04726631
  WF centre and spread    7  (  1.923260,  1.923260,  0.000000 )     0.54310063
  WF centre and spread    8  (  1.923260,  1.923260,  0.000000 )     0.54310063
  WF centre and spread    9  (  1.923260,  0.000000,  0.000000 )     0.94681532
  WF centre and spread   10  (  1.923260, -0.000000, -0.000000 )     0.69712191
  WF centre and spread   11  (  1.923260, -0.000000, -0.000000 )     0.64702994
  WF centre and spread   12  (  0.000000,  1.923260, -0.000000 )     0.94681532
  WF centre and spread   13  (  0.000000,  1.923260, -0.000000 )     0.64702994
  WF centre and spread   14  ( -0.000000,  1.923260,  0.000000 )     0.69712191
  Sum of centres and spreads ( 21.155860, 21.155860,  9.616300 )    13.51841438

     97    -0.110E-11     0.0000064503       13.5184143798      61.44  <-- CONV
        O_D=      0.0000000 O_OD=      0.4427303 O_TOT=     13.5184144 <-- SPRD
 Delta: O_D= -0.2933561E-14 O_OD= -0.1100398E-11 O_TOT= -0.1104894E-11 <-- DLTA
 ------------------------------------------------------------------------------
 Cycle:     98
  WF centre and spread    1  (  1.923260,  1.923260,  1.923260 )     2.67244981
  WF centre and spread    2  (  1.923260,  1.923260,  1.923260 )     0.84122771
  WF centre and spread    3  (  1.923260,  1.923260,  1.923260 )     0.84122771
  WF centre and spread    4  (  1.923260,  1.923260,  1.923260 )     1.01348728
  WF centre and spread    5  (  1.923260,  1.923260,  1.923260 )     1.43461997
  WF centre and spread    6  (  1.923260,  1.923260,  0.000000 )     1.04726630
  WF centre and spread    7  (  1.923260,  1.923260,  0.000000 )     0.54310063
  WF centre and spread    8  (  1.923260,  1.923260,  0.000000 )     0.54310063
  WF centre and spread    9  (  1.923260,  0.000000,  0.000000 )     0.94681532
  WF centre and spread   10  (  1.923260, -0.000000, -0.000000 )     0.69712191
  WF centre and spread   11  (  1.923260, -0.000000, -0.000000 )     0.64702994
  WF centre and spread   12  (  0.000000,  1.923260, -0.000000 )     0.94681532
  WF centre and spread   13  (  0.000000,  1.923260, -0.000000 )     0.64702994
  WF centre and spread   14  ( -0.000000,  1.923260,  0.000000 )     0.69712191
  Sum of centres and spreads ( 21.155860, 21.155860,  9.616300 )    13.51841438

     98    -0.138E-11     0.0000064427       13.5184143798      61.55  <-- CONV
        O_D=      0.0000000 O_OD=      0.4427303 O_TOT=     13.5184144 <-- SPRD
 Delta: O_D= -0.2796199E-14 O_OD= -0.1380396E-11 O_TOT= -0.1382006E-11 <-- DLTA
 ------------------------------------------------------------------------------
 Cycle:     99
  WF centre and spread    1  (  1.923260,  1.923260,  1.923260 )     2.67245025
  WF centre and spread    2  (  1.923260,  1.923260,  1.923260 )     0.84122771
  WF centre and spread    3  (  1.923260,  1.923260,  1.923260 )     0.84122771
  WF centre and spread    4  (  1.923260,  1.923260,  1.923260 )     1.01348728
  WF centre and spread    5  (  1.923260,  1.923260,  1.923260 )     1.43461997
  WF centre and spread    6  (  1.923260,  1.923260,  0.000000 )     1.04726581
  WF centre and spread    7  (  1.923260,  1.923260,  0.000000 )     0.54310064
  WF centre and spread    8  (  1.923260,  1.923260,  0.000000 )     0.54310064
  WF centre and spread    9  (  1.923260,  0.000000,  0.000000 )     0.94681534
  WF centre and spread   10  (  1.923260, -0.000000, -0.000000 )     0.69712191
  WF centre and spread   11  (  1.923260, -0.000000, -0.000000 )     0.64702994
  WF centre and spread   12  (  0.000000,  1.923260, -0.000000 )     0.94681534
  WF centre and spread   13  (  0.000000,  1.923260, -0.000000 )     0.64702994
  WF centre and spread   14  ( -0.000000,  1.923260,  0.000000 )     0.69712191
  Sum of centres and spreads ( 21.155860, 21.155860,  9.616300 )    13.51841438

     99    -0.734E-10     0.0000064342       13.5184143798      61.74  <-- CONV
        O_D=      0.0000000 O_OD=      0.4427303 O_TOT=     13.5184144 <-- SPRD
 Delta: O_D=  0.2970407E-12 O_OD= -0.7371359E-10 O_TOT= -0.7341683E-10 <-- DLTA
 ------------------------------------------------------------------------------
 Cycle:    100
  WF centre and spread    1  (  1.923260,  1.923260,  1.923260 )     2.67245025
  WF centre and spread    2  (  1.923260,  1.923260,  1.923260 )     0.84122771
  WF centre and spread    3  (  1.923260,  1.923260,  1.923260 )     0.84122771
  WF centre and spread    4  (  1.923260,  1.923260,  1.923260 )     1.01348728
  WF centre and spread    5  (  1.923260,  1.923260,  1.923260 )     1.43461997
  WF centre and spread    6  (  1.923260,  1.923260,  0.000000 )     1.04726581
  WF centre and spread    7  (  1.923260,  1.923260,  0.000000 )     0.54310064
  WF centre and spread    8  (  1.923260,  1.923260,  0.000000 )     0.54310064
  WF centre and spread    9  (  1.923260,  0.000000,  0.000000 )     0.94681534
  WF centre and spread   10  (  1.923260, -0.000000, -0.000000 )     0.69712191
  WF centre and spread   11  (  1.923260, -0.000000, -0.000000 )     0.64702994
  WF centre and spread   12  (  0.000000,  1.923260, -0.000000 )     0.94681534
  WF centre and spread   13  (  0.000000,  1.923260, -0.000000 )     0.64702994
  WF centre and spread   14  ( -0.000000,  1.923260,  0.000000 )     0.69712191
  Sum of centres and spreads ( 21.155860, 21.155860,  9.616300 )    13.51841438

    100    -0.295E-12     0.0000064245       13.5184143798      61.85  <-- CONV
        O_D=      0.0000000 O_OD=      0.4427303 O_TOT=     13.5184144 <-- SPRD
 Delta: O_D= -0.4777979E-14 O_OD= -0.2894351E-12 O_TOT= -0.2948752E-12 <-- DLTA
 ------------------------------------------------------------------------------

 Writing checkpoint file aiida.chk... done

 Final State
  WF centre and spread    1  (  1.923260,  1.923260,  1.923260 )     2.67245025
  WF centre and spread    2  (  1.923260,  1.923260,  1.923260 )     0.84122771
  WF centre and spread    3  (  1.923260,  1.923260,  1.923260 )     0.84122771
  WF centre and spread    4  (  1.923260,  1.923260,  1.923260 )     1.01348728
  WF centre and spread    5  (  1.923260,  1.923260,  1.923260 )     1.43461997
  WF centre and spread    6  (  1.923260,  1.923260,  0.000000 )     1.04726581
  WF centre and spread    7  (  1.923260,  1.923260,  0.000000 )     0.54310064
  WF centre and spread    8  (  1.923260,  1.923260,  0.000000 )     0.54310064
  WF centre and spread    9  (  1.923260,  0.000000,  0.000000 )     0.94681534
  WF centre and spread   10  (  1.923260, -0.000000, -0.000000 )     0.69712191
  WF centre and spread   11  (  1.923260, -0.000000, -0.000000 )     0.64702994
  WF centre and spread   12  (  0.000000,  1.923260, -0.000000 )     0.94681534
  WF centre and spread   13  (  0.000000,  1.923260, -0.000000 )     0.64702994
  WF centre and spread   14  ( -0.000000,  1.923260,  0.000000 )     0.69712191
  Sum of centres and spreads ( 21.155860, 21.155860,  9.616300 )    13.51841438

         Spreads (Ang^2)       Omega I      =    13.075684129
        ================       Omega D      =     0.000000000
                               Omega OD     =     0.442730250
    Final Spread (Ang^2)       Omega Total  =    13.518414380
 ------------------------------------------------------------------------------
 Time for wannierise           18.209 (sec)

 Writing checkpoint file aiida.chk... done

 Time for plotting              0.000 (sec)
 Total Execution Time          71.625 (sec)

 *===========================================================================*
 |                             TIMING INFORMATION                            |
 *===========================================================================*
 |    Tag                                                Ncalls      Time (s)|
 |---------------------------------------------------------------------------|
 |kmesh: get                                        :         1         1.392|
 |overlap: allocate                                 :         1         0.001|
 |overlap: read                                     :         1         7.946|
 |dis: main                                         :         1        43.942|
 |wann: main                                        :         1        18.209|
 |plot: main                                        :         1         0.000|
 *---------------------------------------------------------------------------*

 All done: wannier90 exiting
