
     Program PWSCF v.6.5 starts on  1May2020 at 14: 5:46 

     This program is part of the open-source Quantum ESPRESSO suite
     for quantum simulation of materials; please cite
         "P. Giannozzi et al., J. Phys.:Condens. Matter 21 395502 (2009);
         "P. Giannozzi et al., J. Phys.:Condens. Matter 29 465901 (2017);
          URL http://www.quantum-espresso.org", 
     in publications or presentations arising from this work. More details at
     http://www.quantum-espresso.org/quote

     Serial version
     Reading input from aiida.in

     Current dimensions of program PWSCF are:
     Max number of different atomic species (ntypx) = 10
     Max number of k-points (npk) =  40000
     Max angular momentum in pseudopotentials (lmaxx) =  3
               file O.pbe-n-kjpaw_psl.0.1.UPF: wavefunction(s)  2P renormalized
     Message from routine setup:
     using ibrav=0 with symmetry is DISCOURAGED, use correct ibrav instead

     G-vector sticks info
     --------------------
     sticks:   dense  smooth     PW     G-vecs:    dense   smooth      PW
     Sum        1265     845    253                33641    18325    3071



     bravais-lattice index     =            0
     lattice parameter (alat)  =       7.2689  a.u.
     unit-cell volume          =     384.0613 (a.u.)^3
     number of atoms/cell      =            5
     number of atomic types    =            3
     number of electrons       =        41.00
     number of Kohn-Sham states=           25
     kinetic-energy cutoff     =      50.0000  Ry
     charge density cutoff     =     300.0000  Ry
     convergence threshold     =      1.0E-08
     mixing beta               =       0.7000
     number of iterations used =            8  plain     mixing
     Exchange-correlation=  SLA  PW   PBX  PBC
                           (   1   4   3   4   0   0   0)

     celldm(1)=   7.268869  celldm(2)=   0.000000  celldm(3)=   0.000000
     celldm(4)=   0.000000  celldm(5)=   0.000000  celldm(6)=   0.000000

     crystal axes: (cart. coord. in units of alat)
               a(1) = (   1.000000   0.000000   0.000000 )  
               a(2) = (   0.000000   1.000000   0.000000 )  
               a(3) = (   0.000000   0.000000   1.000000 )  

     reciprocal axes: (cart. coord. in units 2 pi/alat)
               b(1) = (  1.000000  0.000000  0.000000 )  
               b(2) = (  0.000000  1.000000  0.000000 )  
               b(3) = (  0.000000  0.000000  1.000000 )  


     PseudoPot. # 1 for O  read from file:
     ./pseudo/O.pbe-n-kjpaw_psl.0.1.UPF
     MD5 check sum: 0234752ac141de4415c5fc33072bef88
     Pseudo is Projector augmented-wave + core cor, Zval =  6.0
     Generated using "atomic" code by A. Dal Corso v.5.0.99 svn rev. 10869
     Shape of augmentation charge: BESSEL
     Using radial grid of 1095 points,  4 beta functions with: 
                l(1) =   0
                l(2) =   0
                l(3) =   1
                l(4) =   1
     Q(r) pseudized with 0 coefficients 


     PseudoPot. # 2 for Sr read from file:
     ./pseudo/Sr_pbe_v1.uspp.F.UPF
     MD5 check sum: 6b418c05fbe9db5448babca5e47b7a5b
     Pseudo is Ultrasoft + core correction, Zval = 10.0
     Generated by new atomic code, or converted to UPF format
     Using radial grid of  883 points,  6 beta functions with: 
                l(1) =   0
                l(2) =   0
                l(3) =   1
                l(4) =   1
                l(5) =   2
                l(6) =   2
     Q(r) pseudized with  6 coefficients,  rinner =    1.400   1.400   1.400
                                                       1.400   1.400

     PseudoPot. # 3 for V  read from file:
     ./pseudo/v_pbe_v1.4.uspp.F.UPF
     MD5 check sum: 22b79981416ebb76fdaf5b1b8640f6fb
     Pseudo is Ultrasoft + core correction, Zval = 13.0
     Generated by new atomic code, or converted to UPF format
     Using radial grid of  853 points,  6 beta functions with: 
                l(1) =   0
                l(2) =   0
                l(3) =   1
                l(4) =   1
                l(5) =   2
                l(6) =   2
     Q(r) pseudized with  8 coefficients,  rinner =    1.100   1.100   1.100
                                                       1.100   1.100

     atomic species   valence    mass     pseudopotential
        O              6.00    15.99940     O ( 1.00)
        Sr            10.00    87.62000     Sr( 1.00)
        V             13.00    50.94150     V ( 1.00)

     16 Sym. Ops., with inversion, found



   Cartesian axes

     site n.     atom                  positions (alat units)
         1           Sr  tau(   1) = (   0.0000000   0.0000000   0.0000000  )
         2           V   tau(   2) = (   0.5000000   0.5000000   0.5000000  )
         3           O   tau(   3) = (   0.5000000   0.5000000   0.0000000  )
         4           O   tau(   4) = (   0.5000000   0.0000000   0.0000000  )
         5           O   tau(   5) = (   0.0000000   0.5000000   0.0000000  )

     number of k points=    18  Marzari-Vanderbilt smearing, width (Ry)=  0.0050
                       cart. coord. in units 2pi/alat
        k(    1) = (   0.0000000   0.0000000   0.0000000), wk =   0.0312500
        k(    2) = (   0.0000000   0.0000000   0.2500000), wk =   0.0625000
        k(    3) = (   0.0000000   0.0000000  -0.5000000), wk =   0.0312500
        k(    4) = (   0.0000000   0.2500000   0.2500000), wk =   0.2500000
        k(    5) = (   0.0000000   0.2500000  -0.5000000), wk =   0.1250000
        k(    6) = (   0.0000000  -0.5000000  -0.5000000), wk =   0.0625000
        k(    7) = (   0.2500000   0.2500000   0.2500000), wk =   0.2500000
        k(    8) = (   0.2500000   0.2500000  -0.5000000), wk =   0.1250000
        k(    9) = (   0.2500000  -0.5000000  -0.5000000), wk =   0.1250000
        k(   10) = (  -0.5000000  -0.5000000  -0.5000000), wk =   0.0312500
        k(   11) = (   0.0000000   0.2500000   0.0000000), wk =   0.1250000
        k(   12) = (   0.0000000  -0.5000000   0.0000000), wk =   0.0625000
        k(   13) = (   0.2500000   0.2500000   0.0000000), wk =   0.1250000
        k(   14) = (   0.2500000  -0.5000000   0.0000000), wk =   0.1250000
        k(   15) = (  -0.5000000   0.0000000   0.2500000), wk =   0.1250000
        k(   16) = (  -0.5000000  -0.5000000   0.0000000), wk =   0.0312500
        k(   17) = (   0.2500000  -0.5000000   0.2500000), wk =   0.2500000
        k(   18) = (  -0.5000000  -0.5000000   0.2500000), wk =   0.0625000

     Dense  grid:    33641 G-vectors     FFT dimensions: (  45,  45,  45)

     Smooth grid:    18325 G-vectors     FFT dimensions: (  36,  36,  36)

     Estimated max dynamical RAM per process >     142.74 MB

     Check: negative core charge=   -0.000004

     Initial potential from superposition of free atoms

     starting charge   40.96511, renormalised to   41.00000

     negative rho (up, down):  6.295E-02 0.000E+00
     Starting wfcs are   35 randomized atomic wfcs

     total cpu time spent up to now is        4.1 secs

     Self-consistent Calculation

     iteration #  1     ecut=    50.00 Ry     beta= 0.70
     Davidson diagonalization with overlap
     ethr =  1.00E-02,  avg # of iterations =  2.0

     negative rho (up, down):  7.006E-02 0.000E+00

     total cpu time spent up to now is        7.8 secs

     total energy              =    -334.86313424 Ry
     Harris-Foulkes estimate   =    -340.16351279 Ry
     estimated scf accuracy    <       6.20774159 Ry

     iteration #  2     ecut=    50.00 Ry     beta= 0.70
     Davidson diagonalization with overlap
     ethr =  1.00E-02,  avg # of iterations =  3.4

     negative rho (up, down):  6.563E-02 0.000E+00

     total cpu time spent up to now is       13.5 secs

     total energy              =    -334.54767739 Ry
     Harris-Foulkes estimate   =    -356.69099464 Ry
     estimated scf accuracy    <      86.43970311 Ry

     iteration #  3     ecut=    50.00 Ry     beta= 0.70
     Davidson diagonalization with overlap
     ethr =  1.00E-02,  avg # of iterations =  4.2

     negative rho (up, down):  6.543E-02 0.000E+00

     total cpu time spent up to now is       19.0 secs

     total energy              =    -339.26119449 Ry
     Harris-Foulkes estimate   =    -339.80869441 Ry
     estimated scf accuracy    <       3.23326022 Ry

     iteration #  4     ecut=    50.00 Ry     beta= 0.70
     Davidson diagonalization with overlap
     ethr =  7.89E-03,  avg # of iterations =  1.4

     negative rho (up, down):  6.484E-02 0.000E+00

     total cpu time spent up to now is       22.4 secs

     total energy              =    -339.24206721 Ry
     Harris-Foulkes estimate   =    -339.39867375 Ry
     estimated scf accuracy    <       1.18522652 Ry

     iteration #  5     ecut=    50.00 Ry     beta= 0.70
     Davidson diagonalization with overlap
     ethr =  2.89E-03,  avg # of iterations =  2.3

     negative rho (up, down):  6.510E-02 0.000E+00

     total cpu time spent up to now is       26.0 secs

     total energy              =    -339.34623203 Ry
     Harris-Foulkes estimate   =    -339.37086133 Ry
     estimated scf accuracy    <       0.09384689 Ry

     iteration #  6     ecut=    50.00 Ry     beta= 0.70
     Davidson diagonalization with overlap
     ethr =  2.29E-04,  avg # of iterations =  4.9

     negative rho (up, down):  6.492E-02 0.000E+00

     total cpu time spent up to now is       30.5 secs

     total energy              =    -339.41511110 Ry
     Harris-Foulkes estimate   =    -339.41794779 Ry
     estimated scf accuracy    <       0.02436325 Ry

     iteration #  7     ecut=    50.00 Ry     beta= 0.70
     Davidson diagonalization with overlap
     ethr =  5.94E-05,  avg # of iterations =  1.7

     negative rho (up, down):  6.474E-02 0.000E+00

     total cpu time spent up to now is       34.0 secs

     total energy              =    -339.39253499 Ry
     Harris-Foulkes estimate   =    -339.42251333 Ry
     estimated scf accuracy    <       0.20674714 Ry

     iteration #  8     ecut=    50.00 Ry     beta= 0.70
     Davidson diagonalization with overlap
     ethr =  5.94E-05,  avg # of iterations =  3.0

     negative rho (up, down):  6.487E-02 0.000E+00

     total cpu time spent up to now is       37.8 secs

     total energy              =    -339.40123065 Ry
     Harris-Foulkes estimate   =    -339.42485953 Ry
     estimated scf accuracy    <       0.28742341 Ry

     iteration #  9     ecut=    50.00 Ry     beta= 0.70
     Davidson diagonalization with overlap
     ethr =  5.94E-05,  avg # of iterations =  2.1

     negative rho (up, down):  6.492E-02 0.000E+00

     total cpu time spent up to now is       41.4 secs

     total energy              =    -339.41336751 Ry
     Harris-Foulkes estimate   =    -339.41341532 Ry
     estimated scf accuracy    <       0.00246510 Ry

     iteration # 10     ecut=    50.00 Ry     beta= 0.70
     Davidson diagonalization with overlap
     ethr =  6.01E-06,  avg # of iterations =  2.2

     negative rho (up, down):  6.491E-02 0.000E+00

     total cpu time spent up to now is       44.9 secs

     total energy              =    -339.42036057 Ry
     Harris-Foulkes estimate   =    -339.42083370 Ry
     estimated scf accuracy    <       0.00325987 Ry

     iteration # 11     ecut=    50.00 Ry     beta= 0.70
     Davidson diagonalization with overlap
     ethr =  6.01E-06,  avg # of iterations =  1.4

     negative rho (up, down):  6.492E-02 0.000E+00

     total cpu time spent up to now is       48.4 secs

     total energy              =    -339.42049063 Ry
     Harris-Foulkes estimate   =    -339.42082691 Ry
     estimated scf accuracy    <       0.00466147 Ry

     iteration # 12     ecut=    50.00 Ry     beta= 0.70
     Davidson diagonalization with overlap
     ethr =  6.01E-06,  avg # of iterations =  1.0

     negative rho (up, down):  6.492E-02 0.000E+00

     total cpu time spent up to now is       51.8 secs

     total energy              =    -339.42066302 Ry
     Harris-Foulkes estimate   =    -339.42071627 Ry
     estimated scf accuracy    <       0.00041337 Ry

     iteration # 13     ecut=    50.00 Ry     beta= 0.70
     Davidson diagonalization with overlap
     ethr =  1.01E-06,  avg # of iterations =  1.0

     negative rho (up, down):  6.492E-02 0.000E+00

     total cpu time spent up to now is       55.2 secs

     total energy              =    -339.42067806 Ry
     Harris-Foulkes estimate   =    -339.42069253 Ry
     estimated scf accuracy    <       0.00012381 Ry

     iteration # 14     ecut=    50.00 Ry     beta= 0.70
     Davidson diagonalization with overlap
     ethr =  3.02E-07,  avg # of iterations =  1.0

     negative rho (up, down):  6.492E-02 0.000E+00

     total cpu time spent up to now is       58.6 secs

     total energy              =    -339.42068520 Ry
     Harris-Foulkes estimate   =    -339.42069035 Ry
     estimated scf accuracy    <       0.00009329 Ry

     iteration # 15     ecut=    50.00 Ry     beta= 0.70
     Davidson diagonalization with overlap
     ethr =  2.28E-07,  avg # of iterations =  1.0

     negative rho (up, down):  6.492E-02 0.000E+00

     total cpu time spent up to now is       62.0 secs

     total energy              =    -339.42068678 Ry
     Harris-Foulkes estimate   =    -339.42068712 Ry
     estimated scf accuracy    <       0.00000591 Ry

     iteration # 16     ecut=    50.00 Ry     beta= 0.70
     Davidson diagonalization with overlap
     ethr =  1.44E-08,  avg # of iterations =  1.7

     negative rho (up, down):  6.492E-02 0.000E+00

     total cpu time spent up to now is       65.5 secs

     total energy              =    -339.42068695 Ry
     Harris-Foulkes estimate   =    -339.42068700 Ry
     estimated scf accuracy    <       0.00000075 Ry

     iteration # 17     ecut=    50.00 Ry     beta= 0.70
     Davidson diagonalization with overlap
     ethr =  1.83E-09,  avg # of iterations =  2.2

     negative rho (up, down):  6.492E-02 0.000E+00

     total cpu time spent up to now is       69.0 secs

     total energy              =    -339.42068700 Ry
     Harris-Foulkes estimate   =    -339.42068700 Ry
     estimated scf accuracy    <       0.00000002 Ry

     iteration # 18     ecut=    50.00 Ry     beta= 0.70
     Davidson diagonalization with overlap
     ethr =  5.30E-11,  avg # of iterations =  3.0

     negative rho (up, down):  6.492E-02 0.000E+00

     total cpu time spent up to now is       73.1 secs

     End of self-consistent calculation

          k = 0.0000 0.0000 0.0000 (  2301 PWs)   bands (ev):

   -52.1108 -26.4561 -25.7703 -25.7703 -20.4791  -9.3020  -6.7693  -4.2703
    -4.2703  -3.7762  -2.3726   4.6047   4.6047   6.3625   8.7157  10.0499
    10.1582  12.2706  12.2706  12.3978  12.6243  12.6243  12.7459  14.5201
    14.5201

          k = 0.0000 0.0000 0.2500 (  2284 PWs)   bands (ev):

   -52.1104 -26.4815 -25.7691 -25.7691 -20.4623  -9.1007  -6.7500  -4.2603
    -4.2603  -3.6749  -2.6184   4.4590   4.4590   5.3823   8.2434   8.8667
    12.0011  12.4593  12.4593  12.8403  12.9359  12.9483  12.9483  14.5927
    14.5927

          k = 0.0000 0.0000-0.5000 (  2272 PWs)   bands (ev):

   -52.1099 -26.5067 -25.7679 -25.7679 -20.4455  -8.8912  -6.7305  -4.2502
    -4.2502  -3.5562  -2.8517   4.3232   4.3232   4.5008   7.8625   8.3507
    12.5061  12.5061  12.9404  13.3752  13.4866  13.4866  13.5648  14.7684
    14.7684

          k = 0.0000 0.2500 0.2500 (  2286 PWs)   bands (ev):

   -52.1102 -26.4804 -25.7743 -25.7687 -20.3849  -9.6341  -7.2664  -4.9567
    -4.1666  -2.5206  -1.2927   4.0427   5.3286   5.9437   7.9633   8.6534
    10.1273  11.9995  12.5967  12.6269  12.7098  13.0196  13.2213  13.5789
    14.3788

          k = 0.0000 0.2500-0.5000 (  2300 PWs)   bands (ev):

   -52.1097 -26.5049 -25.7727 -25.7675 -20.3713  -9.4763  -7.2167  -4.8335
    -4.1528  -2.7343  -1.2828   3.9108   4.4464   5.8168   7.5530   8.1907
    10.1378  12.5145  12.5650  12.6667  13.3244  13.4010  13.7051  14.0171
    14.5983

          k = 0.0000-0.5000-0.5000 (  2296 PWs)   bands (ev):

   -52.1095 -26.5032 -25.7776 -25.7672 -20.2939 -10.1292  -6.6285  -6.0402
    -4.0497  -2.6091   1.5775   3.5198   4.3314   6.5580   7.3489   8.0538
     9.1806   9.8042  12.2839  12.9955  13.1499  13.3137  13.7159  13.9581
    14.4495

          k = 0.2500 0.2500 0.2500 (  2292 PWs)   bands (ev):

   -52.1100 -26.4794 -25.7739 -25.7736 -20.3102  -9.5427  -8.3824  -6.0613
    -2.4305  -1.3765  -1.2295   5.4294   5.5753   5.6013   7.6036   8.3027
     9.9347  10.5742  11.8574  12.2645  12.3789  13.1620  13.2645  13.5724
    13.5881

          k = 0.2500 0.2500-0.5000 (  2314 PWs)   bands (ev):

   -52.1095 -26.5035 -25.7724 -25.7723 -20.2979  -9.3905  -8.3719  -5.9023
    -2.6330  -1.3633  -1.2258   4.5448   5.4634   5.4663   7.3175   7.7837
     9.9404  10.6062  12.2092  12.3563  12.4522  13.3157  13.7730  13.9502
    14.0146

          k = 0.2500-0.5000-0.5000 (  2300 PWs)   bands (ev):

   -52.1093 -26.5021 -25.7771 -25.7719 -20.2214  -9.7920  -8.3067  -6.8193
    -2.5261  -1.2493   1.5556   4.6061   5.1394   6.7964   7.1555   7.4142
     8.7540   9.4244  10.5688  11.9957  12.3168  13.3240  13.7365  13.9293
    13.9611

          k =-0.5000-0.5000-0.5000 (  2320 PWs)   bands (ev):

   -52.1091 -26.5011 -25.7766 -25.7766 -20.1459  -9.2231  -9.2231  -7.7656
    -2.4391   1.5953   1.5953   4.9577   6.6734   6.8708   6.8708   8.1136
     8.1136   8.1856   8.7153   9.4755  12.2743  13.3463  13.7581  13.7581
    13.9619

          k = 0.0000 0.2500 0.0000 (  2284 PWs)   bands (ev):

   -52.1106 -26.4556 -25.7759 -25.7699 -20.3985  -9.7917  -7.3126  -5.0605
    -4.1804  -2.2957  -1.3022   4.1833   6.0850   6.3100   8.3417   9.6591
    10.0882  10.6854  12.3374  12.4395  12.6474  12.8379  12.8507  13.1303
    14.2745

          k = 0.0000-0.5000 0.0000 (  2272 PWs)   bands (ev):

   -52.1104 -26.4551 -25.7816 -25.7694 -20.3142 -10.3800  -6.6308  -6.4116
    -4.0856  -2.2154   1.5540   3.7884   6.1784   6.7139   8.2499   9.1172
     9.5616   9.5667  11.9398  12.4065  12.6315  12.6908  13.0268  13.2702
    13.6613

          k = 0.2500 0.2500 0.0000 (  2286 PWs)   bands (ev):

   -52.1104 -26.4551 -25.7755 -25.7750 -20.3224  -9.6958  -8.3928  -6.1975
    -2.2171  -1.3896  -1.2331   5.6741   5.7569   6.4195   7.8928   9.0743
     9.9316  10.5095  11.1692  12.4016  12.4043  12.8376  12.8932  12.9359
    13.1754

          k = 0.2500-0.5000 0.0000 (  2300 PWs)   bands (ev):

   -52.1102 -26.4546 -25.7806 -25.7746 -20.2431  -9.9949  -8.3189  -7.2099
    -2.1352  -1.2703   1.5456   5.3715   6.4602   6.9098   7.7452   8.4072
     9.1724   9.1955  10.5208  11.8301  11.9676  12.8962  13.0175  13.2775
    13.6750

          k =-0.5000 0.0000 0.2500 (  2300 PWs)   bands (ev):

   -52.1100 -26.4793 -25.7796 -25.7683 -20.3041 -10.2539  -6.6297  -6.2378
    -4.0677  -2.4175   1.5657   3.6501   5.2098   6.6322   8.0346   8.1415
     9.3673   9.7130  12.4629  12.8092  12.9064  13.0044  13.3008  13.7084
    14.1466

          k =-0.5000-0.5000 0.0000 (  2296 PWs)   bands (ev):

   -52.1100 -26.4542 -25.7797 -25.7797 -20.1691  -9.2360  -9.2360  -8.3259
    -2.0515   1.5899   1.5899   6.6557   7.2476   7.2891   7.2891   8.1011
     8.4104   8.6715   8.6715   9.3404  11.5539  13.2869  13.2869  13.5844
    13.7808

          k = 0.2500-0.5000 0.2500 (  2314 PWs)   bands (ev):

   -52.1098 -26.4785 -25.7789 -25.7732 -20.2323  -9.8908  -8.3128  -7.0278
    -2.3358  -1.2598   1.5506   5.2445   5.5116   6.8464   7.5779   7.6704
     8.9564   9.3223  10.5450  11.9087  12.1628  13.2405  13.4251  13.4998
    13.8557

          k =-0.5000-0.5000 0.2500 (  2300 PWs)   bands (ev):

   -52.1096 -26.4777 -25.7782 -25.7782 -20.1575  -9.2295  -9.2295  -8.0558
    -2.2503   1.5926   1.5926   5.9887   6.6645   7.0595   7.0595   8.1437
     8.3980   8.3980   8.5767   9.4062  11.9571  13.4668  13.4697  13.4697
    14.0166

     the Fermi energy is    12.6750 ev

!    total energy              =    -339.42068700 Ry
     Harris-Foulkes estimate   =    -339.42068700 Ry
     estimated scf accuracy    <          1.0E-09 Ry

     The total energy is the sum of the following terms:

     one-electron contribution =    -103.18181073 Ry
     hartree contribution      =      76.61163624 Ry
     xc contribution           =     -60.85090318 Ry
     ewald contribution        =    -223.35781771 Ry
     one-center paw contrib.   =     -28.64174561 Ry
     smearing contrib. (-TS)   =      -0.00004601 Ry

     convergence has been achieved in  18 iterations

     Writing output data file ./out/aiida.save/

     init_run     :      3.33s CPU      3.45s WALL (       1 calls)
     electrons    :     67.12s CPU     69.01s WALL (       1 calls)

     Called by init_run:
     wfcinit      :      1.64s CPU      1.64s WALL (       1 calls)
     potinit      :      0.23s CPU      0.24s WALL (       1 calls)
     hinit0       :      1.32s CPU      1.34s WALL (       1 calls)

     Called by electrons:
     c_bands      :     50.47s CPU     50.59s WALL (      18 calls)
     sum_band     :     10.29s CPU     11.17s WALL (      18 calls)
     v_of_rho     :      1.26s CPU      1.27s WALL (      19 calls)
     newd         :      2.53s CPU      3.45s WALL (      19 calls)
     PAW_pot      :      2.67s CPU      2.67s WALL (      19 calls)
     mix_rho      :      0.17s CPU      0.17s WALL (      18 calls)

     Called by c_bands:
     init_us_2    :      1.15s CPU      1.15s WALL (     666 calls)
     cegterg      :     48.33s CPU     48.45s WALL (     324 calls)

     Called by sum_band:
     sum_band:bec :      0.01s CPU      0.01s WALL (     324 calls)
     addusdens    :      2.75s CPU      3.61s WALL (      18 calls)

     Called by *egterg:
     h_psi        :     32.00s CPU     32.09s WALL (    1052 calls)
     s_psi        :      4.85s CPU      4.85s WALL (    1052 calls)
     g_psi        :      0.25s CPU      0.25s WALL (     710 calls)
     cdiaghg      :      1.36s CPU      1.36s WALL (    1034 calls)

     Called by h_psi:
     h_psi:calbec :      4.52s CPU      4.53s WALL (    1052 calls)
     vloc_psi     :     22.54s CPU     22.61s WALL (    1052 calls)
     add_vuspsi   :      4.84s CPU      4.84s WALL (    1052 calls)

     General routines
     calbec       :      6.42s CPU      6.43s WALL (    1376 calls)
     fft          :      0.50s CPU      0.51s WALL (     245 calls)
     ffts         :      0.03s CPU      0.03s WALL (      37 calls)
     fftw         :     24.74s CPU     24.82s WALL (   46046 calls)
     interpolate  :      0.06s CPU      0.06s WALL (      19 calls)


     PWSCF        :   1m10.86s CPU   1m13.14s WALL


   This run was terminated on:  14: 6:59   1May2020            

=------------------------------------------------------------------------------=
   JOB DONE.
=------------------------------------------------------------------------------=
